 written on 17Sep2015 at 14:24:53 
          11
         409
    2    1    1    1    2    1    1    1    1    1    1    2    2    1    1
    1    1    1    1    1    1    1    2    1    1    1    1    1    1    1
    1    1    1    1    1    1    2    1    1    1    1    1    1    1    1
    1    1    1    1    1    1    1    1    2    1    1    1    1    1    1
    1    1    1    1    1    1    1    1    1    1    1    1    1    2    1
    1    1    1    1    1    1    1    1    1    1    1    1    1    1    1
    1    1    1    1    1    1    1    1    1    1    1    1    1    1    1
    1    1    1    1    1    1    1    1    1    1    1    1    1    1    1
    1    1    1    1    1    1    1    1    1    1    1    1    1    1    1
    1    1    1    1    1    1    1    1    1    1    1    1    1    1    1
    1    1    1    1    1    1    1    1    1    1    1    1    1    1    1
    1    1    1    1    1    1    1    1    1    1    1    1    1    1    1
    1    1    1    1    1    1    1    1    1    1    1    1    1    1    2
    1    1    1    1    1    1    1    1    1    1    1    1    1    1    1
    1    1    1    1    2    1    1    1    1    1    1    1    1    1    1
    1    1    1    1    1    1    1    1    1    1    1    1    1    1    1
    1    1    1    1    1    1    1    1    1    1    1    1    1    1    1
    1    1    1    1    1    1    1    1    1    1    1    1    1    1    1
    1    1    1    1    1    1    1    1    1    1    1    1    1    1    1
    1    1    1    1    1    1    1    1    1    1    1    1    1    1    1
    1    1    1    1    1    1    1    1    1    1    1    1    1    1    1
    1    1    1    1    1    1    1    1    1    1    1    1    1    1    1
    1    1    1    1    1    2    1    1    1    1    1    1    1    1    1
    1    1    1    1    1    1    1    1    1    1    2    1    1    1    1
    1    1    1    1    1    1    1    1    1    1    1    1    2    1    1
    1    1    1    1    1    1    1    1    1    1    1    2    1    1    1
    1    1    1    1    1    1    2    2    1    1    1    1    1    1    2
    1    1    1    2
  -13    7    0    1    1    0.000000   -0.000000
  -13    7    0    2    1   -0.000000    0.000000
  -13    7    0    3    1    0.000000   -0.000000
  -13    7    0    4    1    0.000000    0.000000
  -13    7    0    5    1    0.000001    0.000000
  -13    7    0    6    1    0.000002   -0.000000
  -13    7    0    7    1    0.000000    0.000000
  -13    7    0    8    1    0.000002    0.000000
  -13    7    0    9    1   -0.000000    0.000000
  -13    7    0   10    1    0.000001    0.000000
  -13    7    0   11    1   -0.000001    0.000000
  -13    7    0    1    2   -0.000000   -0.000000
  -13    7    0    2    2    0.000000    0.000000
  -13    7    0    3    2    0.000000    0.000000
  -13    7    0    4    2    0.000000   -0.000000
  -13    7    0    5    2   -0.000002    0.000000
  -13    7    0    6    2   -0.000001    0.000000
  -13    7    0    7    2    0.000000    0.000000
  -13    7    0    8    2   -0.000002   -0.000000
  -13    7    0    9    2    0.000000   -0.000000
  -13    7    0   10    2    0.000001    0.000000
  -13    7    0   11    2   -0.000001    0.000000
  -13    7    0    1    3    0.000000   -0.000000
  -13    7    0    2    3   -0.000000   -0.000000
  -13    7    0    3    3    0.000000    0.000000
  -13    7    0    4    3    0.000000   -0.000000
  -13    7    0    5    3    0.000000   -0.000000
  -13    7    0    6    3   -0.000000    0.000000
  -13    7    0    7    3    0.000001    0.000000
  -13    7    0    8    3    0.000000    0.000000
  -13    7    0    9    3    0.000000    0.000000
  -13    7    0   10    3    0.000000   -0.000000
  -13    7    0   11    3   -0.000000    0.000000
  -13    7    0    1    4   -0.000000   -0.000000
  -13    7    0    2    4    0.000000    0.000000
  -13    7    0    3    4    0.000000   -0.000000
  -13    7    0    4    4    0.000000    0.000000
  -13    7    0    5    4    0.000000   -0.000000
  -13    7    0    6    4   -0.000000    0.000000
  -13    7    0    7    4    0.000001    0.000000
  -13    7    0    8    4   -0.000000    0.000000
  -13    7    0    9    4   -0.000000   -0.000000
  -13    7    0   10    4    0.000000   -0.000000
  -13    7    0   11    4   -0.000000    0.000000
  -13    7    0    1    5    0.000002   -0.000000
  -13    7    0    2    5   -0.000003   -0.000000
  -13    7    0    3    5    0.000000    0.000000
  -13    7    0    4    5   -0.000000    0.000000
  -13    7    0    5    5   -0.000000   -0.000000
  -13    7    0    6    5    0.000000    0.000000
  -13    7    0    7    5    0.000000   -0.000000
  -13    7    0    8    5    0.000005   -0.000000
  -13    7    0    9    5    0.000000   -0.000000
  -13    7    0   10    5    0.000003   -0.000000
  -13    7    0   11    5    0.000001    0.000000
  -13    7    0    1    6    0.000003   -0.000000
  -13    7    0    2    6   -0.000002   -0.000000
  -13    7    0    3    6   -0.000000   -0.000000
  -13    7    0    4    6    0.000000   -0.000000
  -13    7    0    5    6    0.000000   -0.000000
  -13    7    0    6    6   -0.000000    0.000000
  -13    7    0    7    6    0.000000    0.000000
  -13    7    0    8    6    0.000005    0.000000
  -13    7    0    9    6   -0.000000   -0.000000
  -13    7    0   10    6   -0.000003   -0.000000
  -13    7    0   11    6   -0.000001    0.000000
  -13    7    0    1    7    0.000000    0.000000
  -13    7    0    2    7    0.000000   -0.000000
  -13    7    0    3    7   -0.000002   -0.000000
  -13    7    0    4    7   -0.000002   -0.000000
  -13    7    0    5    7   -0.000000    0.000000
  -13    7    0    6    7    0.000000   -0.000000
  -13    7    0    7    7    0.000000   -0.000000
  -13    7    0    8    7    0.000000   -0.000000
  -13    7    0    9    7    0.000000   -0.000000
  -13    7    0   10    7   -0.000000   -0.000000
  -13    7    0   11    7   -0.000000    0.000000
  -13    7    0    1    8    0.000001   -0.000000
  -13    7    0    2    8   -0.000001    0.000000
  -13    7    0    3    8    0.000000    0.000000
  -13    7    0    4    8   -0.000000   -0.000000
  -13    7    0    5    8   -0.000000    0.000000
  -13    7    0    6    8   -0.000000    0.000000
  -13    7    0    7    8   -0.000000    0.000000
  -13    7    0    8    8   -0.000000    0.000000
  -13    7    0    9    8    0.000000    0.000000
  -13    7    0   10    8   -0.000000   -0.000000
  -13    7    0   11    8   -0.000000    0.000000
  -13    7    0    1    9    0.000000   -0.000000
  -13    7    0    2    9    0.000000   -0.000000
  -13    7    0    3    9    0.000002   -0.000000
  -13    7    0    4    9   -0.000002    0.000000
  -13    7    0    5    9   -0.000000   -0.000000
  -13    7    0    6    9    0.000000   -0.000000
  -13    7    0    7    9   -0.000000   -0.000000
  -13    7    0    8    9   -0.000000   -0.000000
  -13    7    0    9    9    0.000001   -0.000000
  -13    7    0   10    9    0.000000   -0.000000
  -13    7    0   11    9   -0.000000   -0.000000
  -13    7    0    1   10    0.000003    0.000000
  -13    7    0    2   10    0.000003    0.000000
  -13    7    0    3   10   -0.000000   -0.000000
  -13    7    0    4   10   -0.000000    0.000000
  -13    7    0    5   10   -0.000000    0.000000
  -13    7    0    6   10    0.000000    0.000000
  -13    7    0    7   10    0.000000   -0.000000
  -13    7    0    8   10   -0.000000   -0.000000
  -13    7    0    9   10    0.000000    0.000000
  -13    7    0   10   10   -0.000001    0.000000
  -13    7    0   11   10   -0.000000   -0.000000
  -13    7    0    1   11    0.000000   -0.000000
  -13    7    0    2   11    0.000000   -0.000000
  -13    7    0    3   11   -0.000000   -0.000000
  -13    7    0    4   11    0.000000   -0.000000
  -13    7    0    5   11    0.000005    0.000000
  -13    7    0    6   11   -0.000005    0.000000
  -13    7    0    7   11    0.000000   -0.000000
  -13    7    0    8   11    0.000000   -0.000000
  -13    7    0    9   11   -0.000000    0.000000
  -13    7    0   10   11   -0.000000   -0.000000
  -13    7    0   11   11   -0.000000   -0.000000
  -12    5    0    1    1    0.000000   -0.000000
  -12    5    0    2    1    0.000000    0.000000
  -12    5    0    3    1    0.000000    0.000000
  -12    5    0    4    1   -0.000000    0.000000
  -12    5    0    5    1   -0.000000    0.000000
  -12    5    0    6    1    0.000000   -0.000000
  -12    5    0    7    1   -0.000001    0.000000
  -12    5    0    8    1   -0.000000    0.000000
  -12    5    0    9    1   -0.000000    0.000000
  -12    5    0   10    1    0.000000    0.000000
  -12    5    0   11    1   -0.000000   -0.000000
  -12    5    0    1    2    0.000000    0.000000
  -12    5    0    2    2    0.000000    0.000000
  -12    5    0    3    2   -0.000000    0.000000
  -12    5    0    4    2    0.000000    0.000000
  -12    5    0    5    2   -0.000000   -0.000000
  -12    5    0    6    2    0.000000   -0.000000
  -12    5    0    7    2   -0.000001   -0.000000
  -12    5    0    8    2    0.000000   -0.000000
  -12    5    0    9    2    0.000000   -0.000000
  -12    5    0   10    2    0.000000    0.000000
  -12    5    0   11    2   -0.000000   -0.000000
  -12    5    0    1    3    0.000000   -0.000000
  -12    5    0    2    3    0.000001   -0.000000
  -12    5    0    3    3    0.000000   -0.000000
  -12    5    0    4    3    0.000000    0.000000
  -12    5    0    5    3    0.000000    0.000000
  -12    5    0    6    3   -0.000001    0.000000
  -12    5    0    7    3    0.000000    0.000000
  -12    5    0    8    3   -0.000000    0.000000
  -12    5    0    9    3    0.000001    0.000000
  -12    5    0   10    3    0.000000   -0.000000
  -12    5    0   11    3   -0.000000   -0.000000
  -12    5    0    1    4    0.000001    0.000000
  -12    5    0    2    4    0.000000   -0.000000
  -12    5    0    3    4    0.000000    0.000000
  -12    5    0    4    4    0.000000   -0.000000
  -12    5    0    5    4    0.000001   -0.000000
  -12    5    0    6    4   -0.000000    0.000000
  -12    5    0    7    4    0.000000   -0.000000
  -12    5    0    8    4    0.000000   -0.000000
  -12    5    0    9    4   -0.000001    0.000000
  -12    5    0   10    4    0.000000   -0.000000
  -12    5    0   11    4   -0.000000    0.000000
  -12    5    0    1    5   -0.000000   -0.000000
  -12    5    0    2    5   -0.000000   -0.000000
  -12    5    0    3    5    0.000001   -0.000000
  -12    5    0    4    5    0.000001    0.000000
  -12    5    0    5    5   -0.000000   -0.000000
  -12    5    0    6    5   -0.000000    0.000000
  -12    5    0    7    5    0.000001   -0.000000
  -12    5    0    8    5   -0.000000    0.000000
  -12    5    0    9    5    0.000001   -0.000000
  -12    5    0   10    5    0.000000    0.000000
  -12    5    0   11    5   -0.000001    0.000000
  -12    5    0    1    6    0.000000   -0.000000
  -12    5    0    2    6    0.000000   -0.000000
  -12    5    0    3    6   -0.000001   -0.000000
  -12    5    0    4    6   -0.000001   -0.000000
  -12    5    0    5    6   -0.000000   -0.000000
  -12    5    0    6    6   -0.000000    0.000000
  -12    5    0    7    6   -0.000001   -0.000000
  -12    5    0    8    6   -0.000000    0.000000
  -12    5    0    9    6    0.000001    0.000000
  -12    5    0   10    6   -0.000000    0.000000
  -12    5    0   11    6    0.000001    0.000000
  -12    5    0    1    7    0.000000   -0.000000
  -12    5    0    2    7    0.000000   -0.000000
  -12    5    0    3    7   -0.000000   -0.000000
  -12    5    0    4    7   -0.000000   -0.000000
  -12    5    0    5    7    0.000000    0.000000
  -12    5    0    6    7   -0.000000    0.000000
  -12    5    0    7    7    0.000001   -0.000000
  -12    5    0    8    7    0.000000    0.000000
  -12    5    0    9    7    0.000000    0.000000
  -12    5    0   10    7    0.000001   -0.000000
  -12    5    0   11    7   -0.000001    0.000000
  -12    5    0    1    8    0.000000   -0.000000
  -12    5    0    2    8   -0.000000   -0.000000
  -12    5    0    3    8    0.000001   -0.000000
  -12    5    0    4    8   -0.000001    0.000000
  -12    5    0    5    8   -0.000000    0.000000
  -12    5    0    6    8   -0.000000    0.000000
  -12    5    0    7    8    0.000000   -0.000000
  -12    5    0    8    8   -0.000000    0.000000
  -12    5    0    9    8    0.000001    0.000000
  -12    5    0   10    8   -0.000000    0.000000
  -12    5    0   11    8    0.000000   -0.000000
  -12    5    0    1    9    0.000001    0.000000
  -12    5    0    2    9   -0.000001   -0.000000
  -12    5    0    3    9   -0.000001    0.000000
  -12    5    0    4    9    0.000001    0.000000
  -12    5    0    5    9    0.000000    0.000000
  -12    5    0    6    9    0.000000   -0.000000
  -12    5    0    7    9   -0.000000    0.000000
  -12    5    0    8    9    0.000000    0.000000
  -12    5    0    9    9   -0.000001    0.000000
  -12    5    0   10    9   -0.000000   -0.000000
  -12    5    0   11    9    0.000000    0.000000
  -12    5    0    1   10   -0.000000    0.000000
  -12    5    0    2   10   -0.000000   -0.000000
  -12    5    0    3   10   -0.000000   -0.000000
  -12    5    0    4   10   -0.000000   -0.000000
  -12    5    0    5   10    0.000000   -0.000000
  -12    5    0    6   10   -0.000000    0.000000
  -12    5    0    7   10   -0.000001    0.000000
  -12    5    0    8   10    0.000000   -0.000000
  -12    5    0    9   10    0.000000   -0.000000
  -12    5    0   10   10   -0.000001   -0.000000
  -12    5    0   11   10    0.000001    0.000000
  -12    5    0    1   11    0.000000   -0.000000
  -12    5    0    2   11    0.000000   -0.000000
  -12    5    0    3   11   -0.000000   -0.000000
  -12    5    0    4   11   -0.000000    0.000000
  -12    5    0    5   11    0.000000    0.000000
  -12    5    0    6   11   -0.000000    0.000000
  -12    5    0    7   11   -0.000000   -0.000000
  -12    5    0    8   11   -0.000000    0.000000
  -12    5    0    9   11   -0.000000    0.000000
  -12    5    0   10   11   -0.000000    0.000000
  -12    5    0   11   11    0.000000   -0.000000
  -12    6    0    1    1    0.000000   -0.000000
  -12    6    0    2    1    0.000000   -0.000000
  -12    6    0    3    1    0.000000   -0.000000
  -12    6    0    4    1   -0.000000   -0.000000
  -12    6    0    5    1    0.000000   -0.000000
  -12    6    0    6    1   -0.000000    0.000000
  -12    6    0    7    1    0.000000    0.000000
  -12    6    0    8    1    0.000001   -0.000000
  -12    6    0    9    1    0.000001   -0.000000
  -12    6    0   10    1   -0.000000   -0.000000
  -12    6    0   11    1   -0.000000   -0.000000
  -12    6    0    1    2    0.000000   -0.000000
  -12    6    0    2    2    0.000000    0.000000
  -12    6    0    3    2   -0.000000   -0.000000
  -12    6    0    4    2    0.000000    0.000000
  -12    6    0    5    2    0.000000    0.000000
  -12    6    0    6    2   -0.000000    0.000000
  -12    6    0    7    2    0.000000    0.000000
  -12    6    0    8    2   -0.000001   -0.000000
  -12    6    0    9    2   -0.000001   -0.000000
  -12    6    0   10    2   -0.000000    0.000000
  -12    6    0   11    2   -0.000000   -0.000000
  -12    6    0    1    3    0.000000    0.000000
  -12    6    0    2    3    0.000000    0.000000
  -12    6    0    3    3    0.000000   -0.000000
  -12    6    0    4    3    0.000000    0.000000
  -12    6    0    5    3    0.000000    0.000000
  -12    6    0    6    3   -0.000000    0.000000
  -12    6    0    7    3   -0.000000   -0.000000
  -12    6    0    8    3    0.000001   -0.000000
  -12    6    0    9    3    0.000000   -0.000000
  -12    6    0   10    3    0.000000   -0.000000
  -12    6    0   11    3   -0.000000    0.000000
  -12    6    0    1    4    0.000000    0.000000
  -12    6    0    2    4    0.000000   -0.000000
  -12    6    0    3    4    0.000000    0.000000
  -12    6    0    4    4    0.000000   -0.000000
  -12    6    0    5    4    0.000000    0.000000
  -12    6    0    6    4   -0.000000    0.000000
  -12    6    0    7    4   -0.000000   -0.000000
  -12    6    0    8    4   -0.000001    0.000000
  -12    6    0    9    4   -0.000000    0.000000
  -12    6    0   10    4    0.000000    0.000000
  -12    6    0   11    4   -0.000000   -0.000000
  -12    6    0    1    5   -0.000000   -0.000000
  -12    6    0    2    5   -0.000000    0.000000
  -12    6    0    3    5   -0.000001   -0.000000
  -12    6    0    4    5    0.000000    0.000000
  -12    6    0    5    5    0.000001   -0.000000
  -12    6    0    6    5   -0.000000   -0.000000
  -12    6    0    7    5    0.000000   -0.000000
  -12    6    0    8    5    0.000001   -0.000000
  -12    6    0    9    5    0.000000   -0.000000
  -12    6    0   10    5   -0.000001    0.000000
  -12    6    0   11    5   -0.000001    0.000000
  -12    6    0    1    6    0.000000   -0.000000
  -12    6    0    2    6    0.000000   -0.000000
  -12    6    0    3    6   -0.000000   -0.000000
  -12    6    0    4    6    0.000001   -0.000000
  -12    6    0    5    6   -0.000000    0.000000
  -12    6    0    6    6    0.000001    0.000000
  -12    6    0    7    6   -0.000000   -0.000000
  -12    6    0    8    6    0.000001    0.000000
  -12    6    0    9    6    0.000000    0.000000
  -12    6    0   10    6    0.000001    0.000000
  -12    6    0   11    6    0.000001    0.000000
  -12    6    0    1    7   -0.000001    0.000000
  -12    6    0    2    7   -0.000001    0.000000
  -12    6    0    3    7    0.000001    0.000000
  -12    6    0    4    7    0.000001    0.000000
  -12    6    0    5    7   -0.000001   -0.000000
  -12    6    0    6    7    0.000001   -0.000000
  -12    6    0    7    7    0.000000    0.000000
  -12    6    0    8    7   -0.000000    0.000000
  -12    6    0    9    7   -0.000000    0.000000
  -12    6    0   10    7    0.000000    0.000000
  -12    6    0   11    7   -0.000001    0.000000
  -12    6    0    1    8    0.000000   -0.000000
  -12    6    0    2    8   -0.000000    0.000000
  -12    6    0    3    8   -0.000001   -0.000000
  -12    6    0    4    8    0.000001    0.000000
  -12    6    0    5    8    0.000002    0.000000
  -12    6    0    6    8    0.000002   -0.000000
  -12    6    0    7    8    0.000000    0.000000
  -12    6    0    8    8    0.000000    0.000000
  -12    6    0    9    8   -0.000001    0.000000
  -12    6    0   10    8   -0.000000    0.000000
  -12    6    0   11    8    0.000000    0.000000
  -12    6    0    1    9    0.000002    0.000000
  -12    6    0    2    9   -0.000002   -0.000000
  -12    6    0    3    9   -0.000001   -0.000000
  -12    6    0    4    9    0.000001    0.000000
  -12    6    0    5    9    0.000002    0.000000
  -12    6    0    6    9    0.000002   -0.000000
  -12    6    0    7    9    0.000000    0.000000
  -12    6    0    8    9   -0.000001   -0.000000
  -12    6    0    9    9   -0.000000    0.000000
  -12    6    0   10    9    0.000000   -0.000000
  -12    6    0   11    9   -0.000000    0.000000
  -12    6    0    1   10    0.000001    0.000000
  -12    6    0    2   10    0.000001    0.000000
  -12    6    0    3   10    0.000000   -0.000000
  -12    6    0    4   10    0.000000    0.000000
  -12    6    0    5   10   -0.000001    0.000000
  -12    6    0    6   10    0.000001    0.000000
  -12    6    0    7   10    0.000000    0.000000
  -12    6    0    8   10    0.000000    0.000000
  -12    6    0    9   10    0.000000   -0.000000
  -12    6    0   10   10    0.000000    0.000000
  -12    6    0   11   10    0.000000   -0.000000
  -12    6    0    1   11    0.000000   -0.000000
  -12    6    0    2   11    0.000000    0.000000
  -12    6    0    3   11   -0.000001   -0.000000
  -12    6    0    4   11   -0.000001   -0.000000
  -12    6    0    5   11    0.000001    0.000000
  -12    6    0    6   11   -0.000001    0.000000
  -12    6    0    7   11   -0.000000   -0.000000
  -12    6    0    8   11    0.000000   -0.000000
  -12    6    0    9   11    0.000000   -0.000000
  -12    6    0   10   11    0.000000   -0.000000
  -12    6    0   11   11    0.000000    0.000000
  -12    7    0    1    1    0.000000   -0.000000
  -12    7    0    2    1    0.000000    0.000000
  -12    7    0    3    1   -0.000000   -0.000000
  -12    7    0    4    1    0.000001    0.000000
  -12    7    0    5    1    0.000000    0.000000
  -12    7    0    6    1   -0.000001    0.000000
  -12    7    0    7    1   -0.000000    0.000000
  -12    7    0    8    1    0.000000   -0.000000
  -12    7    0    9    1   -0.000001    0.000000
  -12    7    0   10    1   -0.000000    0.000000
  -12    7    0   11    1   -0.000000    0.000000
  -12    7    0    1    2    0.000000    0.000000
  -12    7    0    2    2    0.000000   -0.000000
  -12    7    0    3    2    0.000001    0.000000
  -12    7    0    4    2   -0.000000   -0.000000
  -12    7    0    5    2    0.000001   -0.000000
  -12    7    0    6    2   -0.000000    0.000000
  -12    7    0    7    2   -0.000000    0.000000
  -12    7    0    8    2   -0.000000   -0.000000
  -12    7    0    9    2    0.000001   -0.000000
  -12    7    0   10    2   -0.000000    0.000000
  -12    7    0   11    2   -0.000000    0.000000
  -12    7    0    1    3    0.000000    0.000000
  -12    7    0    2    3   -0.000000   -0.000000
  -12    7    0    3    3    0.000000    0.000000
  -12    7    0    4    3    0.000000    0.000000
  -12    7    0    5    3   -0.000000   -0.000000
  -12    7    0    6    3   -0.000000   -0.000000
  -12    7    0    7    3   -0.000000   -0.000000
  -12    7    0    8    3   -0.000001   -0.000000
  -12    7    0    9    3   -0.000001   -0.000000
  -12    7    0   10    3   -0.000000    0.000000
  -12    7    0   11    3   -0.000000   -0.000000
  -12    7    0    1    4   -0.000000   -0.000000
  -12    7    0    2    4    0.000000    0.000000
  -12    7    0    3    4    0.000000   -0.000000
  -12    7    0    4    4    0.000000    0.000000
  -12    7    0    5    4    0.000000   -0.000000
  -12    7    0    6    4    0.000000    0.000000
  -12    7    0    7    4   -0.000000   -0.000000
  -12    7    0    8    4    0.000001    0.000000
  -12    7    0    9    4    0.000001    0.000000
  -12    7    0   10    4   -0.000000   -0.000000
  -12    7    0   11    4   -0.000000   -0.000000
  -12    7    0    1    5    0.000001   -0.000000
  -12    7    0    2    5    0.000001    0.000000
  -12    7    0    3    5    0.000000   -0.000000
  -12    7    0    4    5    0.000001    0.000000
  -12    7    0    5    5   -0.000000   -0.000000
  -12    7    0    6    5   -0.000000    0.000000
  -12    7    0    7    5   -0.000001    0.000000
  -12    7    0    8    5   -0.000001   -0.000000
  -12    7    0    9    5   -0.000001   -0.000000
  -12    7    0   10    5   -0.000001    0.000000
  -12    7    0   11    5   -0.000000   -0.000000
  -12    7    0    1    6   -0.000001   -0.000000
  -12    7    0    2    6   -0.000001   -0.000000
  -12    7    0    3    6   -0.000001   -0.000000
  -12    7    0    4    6   -0.000000   -0.000000
  -12    7    0    5    6   -0.000000   -0.000000
  -12    7    0    6    6   -0.000000    0.000000
  -12    7    0    7    6    0.000001    0.000000
  -12    7    0    8    6   -0.000001   -0.000000
  -12    7    0    9    6   -0.000001   -0.000000
  -12    7    0   10    6    0.000001   -0.000000
  -12    7    0   11    6    0.000000   -0.000000
  -12    7    0    1    7    0.000001   -0.000000
  -12    7    0    2    7    0.000001    0.000000
  -12    7    0    3    7   -0.000001    0.000000
  -12    7    0    4    7   -0.000001    0.000000
  -12    7    0    5    7   -0.000000   -0.000000
  -12    7    0    6    7    0.000000   -0.000000
  -12    7    0    7    7   -0.000000   -0.000000
  -12    7    0    8    7    0.000000   -0.000000
  -12    7    0    9    7    0.000000   -0.000000
  -12    7    0   10    7   -0.000002   -0.000000
  -12    7    0   11    7   -0.000001   -0.000000
  -12    7    0    1    8   -0.000000    0.000000
  -12    7    0    2    8    0.000000    0.000000
  -12    7    0    3    8    0.000001    0.000000
  -12    7    0    4    8   -0.000001    0.000000
  -12    7    0    5    8    0.000001    0.000000
  -12    7    0    6    8    0.000001   -0.000000
  -12    7    0    7    8    0.000000   -0.000000
  -12    7    0    8    8   -0.000002   -0.000000
  -12    7    0    9    8   -0.000001   -0.000000
  -12    7    0   10    8    0.000000   -0.000000
  -12    7    0   11    8   -0.000000    0.000000
  -12    7    0    1    9   -0.000002   -0.000000
  -12    7    0    2    9    0.000002    0.000000
  -12    7    0    3    9    0.000000    0.000000
  -12    7    0    4    9   -0.000000    0.000000
  -12    7    0    5    9    0.000002    0.000000
  -12    7    0    6    9    0.000002   -0.000000
  -12    7    0    7    9    0.000000    0.000000
  -12    7    0    8    9    0.000000    0.000000
  -12    7    0    9    9    0.000000    0.000000
  -12    7    0   10    9   -0.000000   -0.000000
  -12    7    0   11    9    0.000000    0.000000
  -12    7    0    1   10   -0.000001   -0.000000
  -12    7    0    2   10   -0.000001   -0.000000
  -12    7    0    3   10   -0.000000   -0.000000
  -12    7    0    4   10   -0.000000   -0.000000
  -12    7    0    5   10    0.000002   -0.000000
  -12    7    0    6   10   -0.000002    0.000000
  -12    7    0    7   10    0.000000    0.000000
  -12    7    0    8   10   -0.000000   -0.000000
  -12    7    0    9   10   -0.000000    0.000000
  -12    7    0   10   10    0.000000   -0.000000
  -12    7    0   11   10    0.000000    0.000000
  -12    7    0    1   11   -0.000001   -0.000000
  -12    7    0    2   11   -0.000001    0.000000
  -12    7    0    3   11   -0.000000   -0.000000
  -12    7    0    4   11   -0.000000   -0.000000
  -12    7    0    5   11    0.000001    0.000000
  -12    7    0    6   11   -0.000001    0.000000
  -12    7    0    7   11    0.000000    0.000000
  -12    7    0    8   11   -0.000000   -0.000000
  -12    7    0    9   11   -0.000000   -0.000000
  -12    7    0   10   11    0.000000    0.000000
  -12    7    0   11   11    0.000000    0.000000
  -12    8    0    1    1    0.000001    0.000000
  -12    8    0    2    1   -0.000001   -0.000000
  -12    8    0    3    1   -0.000000    0.000000
  -12    8    0    4    1    0.000000    0.000000
  -12    8    0    5    1   -0.000001   -0.000000
  -12    8    0    6    1   -0.000000    0.000000
  -12    8    0    7    1   -0.000000   -0.000000
  -12    8    0    8    1   -0.000001   -0.000000
  -12    8    0    9    1   -0.000000    0.000000
  -12    8    0   10    1    0.000000   -0.000000
  -12    8    0   11    1   -0.000000    0.000000
  -12    8    0    1    2   -0.000001   -0.000000
  -12    8    0    2    2    0.000001   -0.000000
  -12    8    0    3    2    0.000000   -0.000000
  -12    8    0    4    2    0.000000    0.000000
  -12    8    0    5    2    0.000000    0.000000
  -12    8    0    6    2    0.000001   -0.000000
  -12    8    0    7    2   -0.000000   -0.000000
  -12    8    0    8    2    0.000001    0.000000
  -12    8    0    9    2    0.000000   -0.000000
  -12    8    0   10    2    0.000000    0.000000
  -12    8    0   11    2   -0.000000   -0.000000
  -12    8    0    1    3    0.000000    0.000000
  -12    8    0    2    3   -0.000000    0.000000
  -12    8    0    3    3    0.000001    0.000000
  -12    8    0    4    3    0.000001   -0.000000
  -12    8    0    5    3    0.000000   -0.000000
  -12    8    0    6    3    0.000000    0.000000
  -12    8    0    7    3   -0.000001    0.000000
  -12    8    0    8    3   -0.000000    0.000000
  -12    8    0    9    3    0.000002   -0.000000
  -12    8    0   10    3    0.000000    0.000000
  -12    8    0   11    3    0.000000   -0.000000
  -12    8    0    1    4    0.000000    0.000000
  -12    8    0    2    4    0.000000    0.000000
  -12    8    0    3    4    0.000001   -0.000000
  -12    8    0    4    4    0.000001    0.000000
  -12    8    0    5    4   -0.000000    0.000000
  -12    8    0    6    4   -0.000000    0.000000
  -12    8    0    7    4   -0.000001    0.000000
  -12    8    0    8    4   -0.000000   -0.000000
  -12    8    0    9    4   -0.000002   -0.000000
  -12    8    0   10    4   -0.000000    0.000000
  -12    8    0   11    4    0.000000   -0.000000
  -12    8    0    1    5   -0.000000    0.000000
  -12    8    0    2    5    0.000001    0.000000
  -12    8    0    3    5    0.000000    0.000000
  -12    8    0    4    5   -0.000000   -0.000000
  -12    8    0    5    5    0.000000   -0.000000
  -12    8    0    6    5    0.000001    0.000000
  -12    8    0    7    5   -0.000000   -0.000000
  -12    8    0    8    5    0.000001   -0.000000
  -12    8    0    9    5    0.000000    0.000000
  -12    8    0   10    5    0.000000    0.000000
  -12    8    0   11    5   -0.000001   -0.000000
  -12    8    0    1    6   -0.000001   -0.000000
  -12    8    0    2    6    0.000000    0.000000
  -12    8    0    3    6    0.000000    0.000000
  -12    8    0    4    6   -0.000000    0.000000
  -12    8    0    5    6    0.000001   -0.000000
  -12    8    0    6    6    0.000000   -0.000000
  -12    8    0    7    6   -0.000000   -0.000000
  -12    8    0    8    6    0.000001    0.000000
  -12    8    0    9    6   -0.000000   -0.000000
  -12    8    0   10    6   -0.000000    0.000000
  -12    8    0   11    6    0.000001    0.000000
  -12    8    0    1    7    0.000000    0.000000
  -12    8    0    2    7   -0.000000    0.000000
  -12    8    0    3    7    0.000000   -0.000000
  -12    8    0    4    7    0.000000   -0.000000
  -12    8    0    5    7   -0.000000   -0.000000
  -12    8    0    6    7    0.000000    0.000000
  -12    8    0    7    7   -0.000002    0.000000
  -12    8    0    8    7   -0.000000   -0.000000
  -12    8    0    9    7    0.000000   -0.000000
  -12    8    0   10    7   -0.000000    0.000000
  -12    8    0   11    7    0.000000    0.000000
  -12    8    0    1    8   -0.000002   -0.000000
  -12    8    0    2    8    0.000002   -0.000000
  -12    8    0    3    8   -0.000000    0.000000
  -12    8    0    4    8   -0.000000   -0.000000
  -12    8    0    5    8    0.000000    0.000000
  -12    8    0    6    8    0.000000   -0.000000
  -12    8    0    7    8    0.000000   -0.000000
  -12    8    0    8    8    0.000003   -0.000000
  -12    8    0    9    8   -0.000000   -0.000000
  -12    8    0   10    8   -0.000000   -0.000000
  -12    8    0   11    8   -0.000000    0.000000
  -12    8    0    1    9   -0.000000    0.000000
  -12    8    0    2    9   -0.000000   -0.000000
  -12    8    0    3    9    0.000001    0.000000
  -12    8    0    4    9   -0.000001    0.000000
  -12    8    0    5    9   -0.000000   -0.000000
  -12    8    0    6    9   -0.000000   -0.000000
  -12    8    0    7    9    0.000000    0.000000
  -12    8    0    8    9   -0.000000   -0.000000
  -12    8    0    9    9   -0.000001    0.000000
  -12    8    0   10    9   -0.000000    0.000000
  -12    8    0   11    9   -0.000000   -0.000000
  -12    8    0    1   10    0.000000   -0.000000
  -12    8    0    2   10    0.000000    0.000000
  -12    8    0    3   10   -0.000000   -0.000000
  -12    8    0    4   10   -0.000000   -0.000000
  -12    8    0    5   10   -0.000000   -0.000000
  -12    8    0    6   10    0.000000   -0.000000
  -12    8    0    7   10    0.000000    0.000000
  -12    8    0    8   10   -0.000000    0.000000
  -12    8    0    9   10    0.000000   -0.000000
  -12    8    0   10   10   -0.000000    0.000000
  -12    8    0   11   10   -0.000001   -0.000000
  -12    8    0    1   11   -0.000000   -0.000000
  -12    8    0    2   11   -0.000000    0.000000
  -12    8    0    3   11    0.000000   -0.000000
  -12    8    0    4   11    0.000000    0.000000
  -12    8    0    5   11    0.000000   -0.000000
  -12    8    0    6   11   -0.000000    0.000000
  -12    8    0    7   11   -0.000000   -0.000000
  -12    8    0    8   11    0.000000    0.000000
  -12    8    0    9   11    0.000000    0.000000
  -12    8    0   10   11   -0.000000    0.000000
  -12    8    0   11   11    0.000000    0.000000
  -11    3    0    1    1   -0.000000   -0.000000
  -11    3    0    2    1    0.000002   -0.000000
  -11    3    0    3    1    0.000000   -0.000000
  -11    3    0    4    1    0.000001   -0.000000
  -11    3    0    5    1   -0.000000   -0.000000
  -11    3    0    6    1   -0.000001    0.000000
  -11    3    0    7    1   -0.000000    0.000000
  -11    3    0    8    1    0.000001   -0.000000
  -11    3    0    9    1    0.000002    0.000000
  -11    3    0   10    1   -0.000000    0.000000
  -11    3    0   11    1    0.000000   -0.000000
  -11    3    0    1    2    0.000002    0.000000
  -11    3    0    2    2   -0.000000   -0.000000
  -11    3    0    3    2    0.000001    0.000000
  -11    3    0    4    2    0.000000   -0.000000
  -11    3    0    5    2    0.000001    0.000000
  -11    3    0    6    2    0.000000   -0.000000
  -11    3    0    7    2   -0.000000   -0.000000
  -11    3    0    8    2   -0.000001   -0.000000
  -11    3    0    9    2   -0.000002   -0.000000
  -11    3    0   10    2   -0.000000    0.000000
  -11    3    0   11    2    0.000000   -0.000000
  -11    3    0    1    3   -0.000001    0.000000
  -11    3    0    2    3    0.000001   -0.000000
  -11    3    0    3    3   -0.000001    0.000000
  -11    3    0    4    3    0.000002   -0.000000
  -11    3    0    5    3    0.000000    0.000000
  -11    3    0    6    3   -0.000000    0.000000
  -11    3    0    7    3   -0.000000   -0.000000
  -11    3    0    8    3    0.000000   -0.000000
  -11    3    0    9    3   -0.000001   -0.000000
  -11    3    0   10    3   -0.000000   -0.000000
  -11    3    0   11    3   -0.000000    0.000000
  -11    3    0    1    4    0.000001   -0.000000
  -11    3    0    2    4   -0.000001   -0.000000
  -11    3    0    3    4    0.000002   -0.000000
  -11    3    0    4    4   -0.000001   -0.000000
  -11    3    0    5    4    0.000000    0.000000
  -11    3    0    6    4   -0.000000    0.000000
  -11    3    0    7    4   -0.000000    0.000000
  -11    3    0    8    4   -0.000000    0.000000
  -11    3    0    9    4    0.000001    0.000000
  -11    3    0   10    4   -0.000000   -0.000000
  -11    3    0   11    4   -0.000000   -0.000000
  -11    3    0    1    5    0.000001   -0.000000
  -11    3    0    2    5   -0.000001   -0.000000
  -11    3    0    3    5    0.000001   -0.000000
  -11    3    0    4    5   -0.000001    0.000000
  -11    3    0    5    5    0.000000    0.000000
  -11    3    0    6    5   -0.000001   -0.000000
  -11    3    0    7    5   -0.000001   -0.000000
  -11    3    0    8    5    0.000001   -0.000000
  -11    3    0    9    5   -0.000000    0.000000
  -11    3    0   10    5   -0.000001   -0.000000
  -11    3    0   11    5    0.000000   -0.000000
  -11    3    0    1    6    0.000001   -0.000000
  -11    3    0    2    6   -0.000001   -0.000000
  -11    3    0    3    6    0.000001   -0.000000
  -11    3    0    4    6   -0.000001   -0.000000
  -11    3    0    5    6   -0.000001    0.000000
  -11    3    0    6    6    0.000000    0.000000
  -11    3    0    7    6    0.000001    0.000000
  -11    3    0    8    6    0.000001    0.000000
  -11    3    0    9    6   -0.000000    0.000000
  -11    3    0   10    6    0.000001   -0.000000
  -11    3    0   11    6   -0.000000   -0.000000
  -11    3    0    1    7   -0.000000    0.000000
  -11    3    0    2    7   -0.000000   -0.000000
  -11    3    0    3    7   -0.000000   -0.000000
  -11    3    0    4    7   -0.000000    0.000000
  -11    3    0    5    7   -0.000000    0.000000
  -11    3    0    6    7    0.000000   -0.000000
  -11    3    0    7    7    0.000000   -0.000000
  -11    3    0    8    7    0.000000    0.000000
  -11    3    0    9    7    0.000000    0.000000
  -11    3    0   10    7   -0.000001   -0.000000
  -11    3    0   11    7   -0.000000    0.000000
  -11    3    0    1    8    0.000002    0.000000
  -11    3    0    2    8   -0.000002    0.000000
  -11    3    0    3    8    0.000001    0.000000
  -11    3    0    4    8   -0.000001   -0.000000
  -11    3    0    5    8   -0.000001    0.000000
  -11    3    0    6    8   -0.000001   -0.000000
  -11    3    0    7    8    0.000000    0.000000
  -11    3    0    8    8   -0.000001   -0.000000
  -11    3    0    9    8   -0.000001    0.000000
  -11    3    0   10    8   -0.000000    0.000000
  -11    3    0   11    8    0.000000   -0.000000
  -11    3    0    1    9    0.000001   -0.000000
  -11    3    0    2    9   -0.000001    0.000000
  -11    3    0    3    9    0.000001    0.000000
  -11    3    0    4    9   -0.000001   -0.000000
  -11    3    0    5    9    0.000001    0.000000
  -11    3    0    6    9    0.000001   -0.000000
  -11    3    0    7    9    0.000000   -0.000000
  -11    3    0    8    9    0.000000    0.000000
  -11    3    0    9    9   -0.000000   -0.000000
  -11    3    0   10    9    0.000000    0.000000
  -11    3    0   11    9    0.000000   -0.000000
  -11    3    0    1   10    0.000000    0.000000
  -11    3    0    2   10    0.000000    0.000000
  -11    3    0    3   10    0.000000   -0.000000
  -11    3    0    4   10    0.000000   -0.000000
  -11    3    0    5   10   -0.000000    0.000000
  -11    3    0    6   10    0.000000   -0.000000
  -11    3    0    7   10    0.000000   -0.000000
  -11    3    0    8   10    0.000000   -0.000000
  -11    3    0    9   10   -0.000000    0.000000
  -11    3    0   10   10   -0.000001   -0.000000
  -11    3    0   11   10   -0.000000    0.000000
  -11    3    0    1   11    0.000000   -0.000000
  -11    3    0    2   11    0.000000    0.000000
  -11    3    0    3   11   -0.000000    0.000000
  -11    3    0    4   11   -0.000000   -0.000000
  -11    3    0    5   11   -0.000000    0.000000
  -11    3    0    6   11    0.000000   -0.000000
  -11    3    0    7   11   -0.000000    0.000000
  -11    3    0    8   11    0.000000    0.000000
  -11    3    0    9   11   -0.000000   -0.000000
  -11    3    0   10   11    0.000000    0.000000
  -11    3    0   11   11   -0.000000    0.000000
  -11    4    0    1    1    0.000001   -0.000000
  -11    4    0    2    1   -0.000001    0.000000
  -11    4    0    3    1    0.000001   -0.000000
  -11    4    0    4    1   -0.000000    0.000000
  -11    4    0    5    1   -0.000000   -0.000000
  -11    4    0    6    1    0.000000    0.000000
  -11    4    0    7    1   -0.000001   -0.000000
  -11    4    0    8    1   -0.000001   -0.000000
  -11    4    0    9    1   -0.000002    0.000000
  -11    4    0   10    1   -0.000000    0.000000
  -11    4    0   11    1    0.000000   -0.000000
  -11    4    0    1    2   -0.000001    0.000000
  -11    4    0    2    2    0.000001   -0.000000
  -11    4    0    3    2   -0.000000    0.000000
  -11    4    0    4    2    0.000001   -0.000000
  -11    4    0    5    2   -0.000000    0.000000
  -11    4    0    6    2    0.000000   -0.000000
  -11    4    0    7    2   -0.000001   -0.000000
  -11    4    0    8    2    0.000001   -0.000000
  -11    4    0    9    2    0.000002    0.000000
  -11    4    0   10    2   -0.000000    0.000000
  -11    4    0   11    2    0.000000   -0.000000
  -11    4    0    1    3    0.000001   -0.000000
  -11    4    0    2    3   -0.000001   -0.000000
  -11    4    0    3    3    0.000001   -0.000000
  -11    4    0    4    3   -0.000000    0.000000
  -11    4    0    5    3   -0.000000   -0.000000
  -11    4    0    6    3   -0.000000    0.000000
  -11    4    0    7    3   -0.000001    0.000000
  -11    4    0    8    3   -0.000000    0.000000
  -11    4    0    9    3   -0.000000   -0.000000
  -11    4    0   10    3   -0.000000   -0.000000
  -11    4    0   11    3    0.000000   -0.000000
  -11    4    0    1    4   -0.000001    0.000000
  -11    4    0    2    4    0.000001   -0.000000
  -11    4    0    3    4   -0.000000    0.000000
  -11    4    0    4    4    0.000001    0.000000
  -11    4    0    5    4    0.000000    0.000000
  -11    4    0    6    4    0.000000    0.000000
  -11    4    0    7    4   -0.000001    0.000000
  -11    4    0    8    4    0.000000    0.000000
  -11    4    0    9    4    0.000000   -0.000000
  -11    4    0   10    4   -0.000000   -0.000000
  -11    4    0   11    4    0.000000    0.000000
  -11    4    0    1    5   -0.000001    0.000000
  -11    4    0    2    5    0.000000   -0.000000
  -11    4    0    3    5   -0.000001    0.000000
  -11    4    0    4    5    0.000001   -0.000000
  -11    4    0    5    5   -0.000000   -0.000000
  -11    4    0    6    5   -0.000001    0.000000
  -11    4    0    7    5   -0.000002   -0.000000
  -11    4    0    8    5   -0.000002   -0.000000
  -11    4    0    9    5    0.000001    0.000000
  -11    4    0   10    5   -0.000002   -0.000000
  -11    4    0   11    5    0.000001   -0.000000
  -11    4    0    1    6   -0.000000    0.000000
  -11    4    0    2    6    0.000001   -0.000000
  -11    4    0    3    6   -0.000001    0.000000
  -11    4    0    4    6    0.000001   -0.000000
  -11    4    0    5    6   -0.000001   -0.000000
  -11    4    0    6    6   -0.000000   -0.000000
  -11    4    0    7    6    0.000002   -0.000000
  -11    4    0    8    6   -0.000002   -0.000000
  -11    4    0    9    6    0.000001    0.000000
  -11    4    0   10    6    0.000002   -0.000000
  -11    4    0   11    6   -0.000001    0.000000
  -11    4    0    1    7    0.000000   -0.000000
  -11    4    0    2    7    0.000000    0.000000
  -11    4    0    3    7    0.000000   -0.000000
  -11    4    0    4    7    0.000000    0.000000
  -11    4    0    5    7    0.000001    0.000000
  -11    4    0    6    7   -0.000001   -0.000000
  -11    4    0    7    7   -0.000001    0.000000
  -11    4    0    8    7   -0.000000   -0.000000
  -11    4    0    9    7    0.000000    0.000000
  -11    4    0   10    7   -0.000001   -0.000000
  -11    4    0   11    7    0.000000   -0.000000
  -11    4    0    1    8   -0.000003   -0.000000
  -11    4    0    2    8    0.000003   -0.000000
  -11    4    0    3    8   -0.000002    0.000000
  -11    4    0    4    8    0.000002   -0.000000
  -11    4    0    5    8    0.000000   -0.000000
  -11    4    0    6    8    0.000000   -0.000000
  -11    4    0    7    8    0.000000    0.000000
  -11    4    0    8    8    0.000000    0.000000
  -11    4    0    9    8    0.000002   -0.000000
  -11    4    0   10    8   -0.000000    0.000000
  -11    4    0   11    8   -0.000000    0.000000
  -11    4    0    1    9    0.000001   -0.000000
  -11    4    0    2    9   -0.000001   -0.000000
  -11    4    0    3    9    0.000001   -0.000000
  -11    4    0    4    9   -0.000001    0.000000
  -11    4    0    5    9   -0.000001   -0.000000
  -11    4    0    6    9   -0.000001   -0.000000
  -11    4    0    7    9   -0.000000   -0.000000
  -11    4    0    8    9    0.000001   -0.000000
  -11    4    0    9    9   -0.000000    0.000000
  -11    4    0   10    9    0.000000    0.000000
  -11    4    0   11    9   -0.000000    0.000000
  -11    4    0    1   10    0.000001   -0.000000
  -11    4    0    2   10    0.000001   -0.000000
  -11    4    0    3   10    0.000000    0.000000
  -11    4    0    4   10    0.000000    0.000000
  -11    4    0    5   10   -0.000000    0.000000
  -11    4    0    6   10    0.000000    0.000000
  -11    4    0    7   10    0.000001    0.000000
  -11    4    0    8   10   -0.000000    0.000000
  -11    4    0    9   10    0.000000    0.000000
  -11    4    0   10   10    0.000001    0.000000
  -11    4    0   11   10   -0.000001    0.000000
  -11    4    0    1   11   -0.000000   -0.000000
  -11    4    0    2   11   -0.000000    0.000000
  -11    4    0    3   11   -0.000000   -0.000000
  -11    4    0    4   11   -0.000000   -0.000000
  -11    4    0    5   11   -0.000000   -0.000000
  -11    4    0    6   11    0.000000   -0.000000
  -11    4    0    7   11    0.000001    0.000000
  -11    4    0    8   11   -0.000000   -0.000000
  -11    4    0    9   11    0.000000   -0.000000
  -11    4    0   10   11    0.000000   -0.000000
  -11    4    0   11   11   -0.000000    0.000000
  -11    5    0    1    1   -0.000000   -0.000000
  -11    5    0    2    1    0.000001    0.000000
  -11    5    0    3    1    0.000000    0.000000
  -11    5    0    4    1    0.000001   -0.000000
  -11    5    0    5    1    0.000000    0.000000
  -11    5    0    6    1    0.000000    0.000000
  -11    5    0    7    1   -0.000001   -0.000000
  -11    5    0    8    1    0.000000    0.000000
  -11    5    0    9    1    0.000001   -0.000000
  -11    5    0   10    1    0.000000    0.000000
  -11    5    0   11    1    0.000000   -0.000000
  -11    5    0    1    2    0.000001   -0.000000
  -11    5    0    2    2   -0.000000   -0.000000
  -11    5    0    3    2    0.000001   -0.000000
  -11    5    0    4    2    0.000000    0.000000
  -11    5    0    5    2   -0.000000    0.000000
  -11    5    0    6    2   -0.000000   -0.000000
  -11    5    0    7    2   -0.000001    0.000000
  -11    5    0    8    2   -0.000000    0.000000
  -11    5    0    9    2   -0.000001    0.000000
  -11    5    0   10    2    0.000000    0.000000
  -11    5    0   11    2    0.000000    0.000000
  -11    5    0    1    3   -0.000000    0.000000
  -11    5    0    2    3    0.000001   -0.000000
  -11    5    0    3    3    0.000001    0.000000
  -11    5    0    4    3    0.000001    0.000000
  -11    5    0    5    3   -0.000000   -0.000000
  -11    5    0    6    3    0.000000   -0.000000
  -11    5    0    7    3   -0.000001   -0.000000
  -11    5    0    8    3    0.000001   -0.000000
  -11    5    0    9    3    0.000001   -0.000000
  -11    5    0   10    3    0.000001    0.000000
  -11    5    0   11    3    0.000000    0.000000
  -11    5    0    1    4    0.000001   -0.000000
  -11    5    0    2    4   -0.000000   -0.000000
  -11    5    0    3    4    0.000001    0.000000
  -11    5    0    4    4    0.000001    0.000000
  -11    5    0    5    4   -0.000000   -0.000000
  -11    5    0    6    4    0.000000   -0.000000
  -11    5    0    7    4   -0.000001   -0.000000
  -11    5    0    8    4   -0.000001    0.000000
  -11    5    0    9    4   -0.000001    0.000000
  -11    5    0   10    4    0.000001   -0.000000
  -11    5    0   11    4    0.000000   -0.000000
  -11    5    0    1    5    0.000000    0.000000
  -11    5    0    2    5   -0.000000   -0.000000
  -11    5    0    3    5    0.000001   -0.000000
  -11    5    0    4    5    0.000001   -0.000000
  -11    5    0    5    5   -0.000000    0.000000
  -11    5    0    6    5    0.000001    0.000000
  -11    5    0    7    5   -0.000001    0.000000
  -11    5    0    8    5    0.000000    0.000000
  -11    5    0    9    5    0.000000    0.000000
  -11    5    0   10    5    0.000001    0.000000
  -11    5    0   11    5    0.000001    0.000000
  -11    5    0    1    6    0.000000   -0.000000
  -11    5    0    2    6   -0.000000   -0.000000
  -11    5    0    3    6   -0.000001    0.000000
  -11    5    0    4    6   -0.000001    0.000000
  -11    5    0    5    6    0.000001   -0.000000
  -11    5    0    6    6   -0.000000   -0.000000
  -11    5    0    7    6    0.000001   -0.000000
  -11    5    0    8    6    0.000000    0.000000
  -11    5    0    9    6    0.000000    0.000000
  -11    5    0   10    6   -0.000001   -0.000000
  -11    5    0   11    6   -0.000001    0.000000
  -11    5    0    1    7   -0.000000   -0.000000
  -11    5    0    2    7   -0.000000    0.000000
  -11    5    0    3    7    0.000000   -0.000000
  -11    5    0    4    7    0.000000   -0.000000
  -11    5    0    5    7    0.000000    0.000000
  -11    5    0    6    7   -0.000000    0.000000
  -11    5    0    7    7   -0.000002   -0.000000
  -11    5    0    8    7    0.000000   -0.000000
  -11    5    0    9    7    0.000000   -0.000000
  -11    5    0   10    7   -0.000001   -0.000000
  -11    5    0   11    7    0.000001   -0.000000
  -11    5    0    1    8    0.000002   -0.000000
  -11    5    0    2    8   -0.000002   -0.000000
  -11    5    0    3    8    0.000002    0.000000
  -11    5    0    4    8   -0.000002   -0.000000
  -11    5    0    5    8   -0.000000   -0.000000
  -11    5    0    6    8   -0.000000   -0.000000
  -11    5    0    7    8   -0.000000    0.000000
  -11    5    0    8    8   -0.000000    0.000000
  -11    5    0    9    8   -0.000001    0.000000
  -11    5    0   10    8    0.000000    0.000000
  -11    5    0   11    8   -0.000000    0.000000
  -11    5    0    1    9   -0.000002   -0.000000
  -11    5    0    2    9    0.000002    0.000000
  -11    5    0    3    9    0.000000    0.000000
  -11    5    0    4    9   -0.000000   -0.000000
  -11    5    0    5    9   -0.000001    0.000000
  -11    5    0    6    9   -0.000001   -0.000000
  -11    5    0    7    9   -0.000000   -0.000000
  -11    5    0    8    9   -0.000001    0.000000
  -11    5    0    9    9    0.000000   -0.000000
  -11    5    0   10    9   -0.000000    0.000000
  -11    5    0   11    9    0.000000    0.000000
  -11    5    0    1   10   -0.000000   -0.000000
  -11    5    0    2   10   -0.000000    0.000000
  -11    5    0    3   10   -0.000001    0.000000
  -11    5    0    4   10   -0.000001   -0.000000
  -11    5    0    5   10    0.000000   -0.000000
  -11    5    0    6   10   -0.000000   -0.000000
  -11    5    0    7   10    0.000001   -0.000000
  -11    5    0    8   10    0.000000   -0.000000
  -11    5    0    9   10   -0.000000    0.000000
  -11    5    0   10   10   -0.000001    0.000000
  -11    5    0   11   10   -0.000001   -0.000000
  -11    5    0    1   11    0.000000   -0.000000
  -11    5    0    2   11    0.000000   -0.000000
  -11    5    0    3   11   -0.000000    0.000000
  -11    5    0    4   11   -0.000000    0.000000
  -11    5    0    5   11    0.000000   -0.000000
  -11    5    0    6   11   -0.000000   -0.000000
  -11    5    0    7   11    0.000001    0.000000
  -11    5    0    8   11   -0.000000   -0.000000
  -11    5    0    9   11   -0.000000    0.000000
  -11    5    0   10   11   -0.000000   -0.000000
  -11    5    0   11   11   -0.000000   -0.000000
  -11    6    0    1    1    0.000001    0.000000
  -11    6    0    2    1    0.000000    0.000000
  -11    6    0    3    1    0.000000    0.000000
  -11    6    0    4    1    0.000000   -0.000000
  -11    6    0    5    1   -0.000000    0.000000
  -11    6    0    6    1   -0.000000    0.000000
  -11    6    0    7    1   -0.000000    0.000000
  -11    6    0    8    1    0.000000    0.000000
  -11    6    0    9    1    0.000001    0.000000
  -11    6    0   10    1    0.000001   -0.000000
  -11    6    0   11    1    0.000000    0.000000
  -11    6    0    1    2    0.000000   -0.000000
  -11    6    0    2    2    0.000001    0.000000
  -11    6    0    3    2    0.000000    0.000000
  -11    6    0    4    2    0.000000    0.000000
  -11    6    0    5    2    0.000000    0.000000
  -11    6    0    6    2    0.000000   -0.000000
  -11    6    0    7    2   -0.000000   -0.000000
  -11    6    0    8    2   -0.000000   -0.000000
  -11    6    0    9    2   -0.000001   -0.000000
  -11    6    0   10    2    0.000001    0.000000
  -11    6    0   11    2    0.000000   -0.000000
  -11    6    0    1    3    0.000001   -0.000000
  -11    6    0    2    3    0.000000    0.000000
  -11    6    0    3    3   -0.000000    0.000000
  -11    6    0    4    3    0.000001    0.000000
  -11    6    0    5    3   -0.000000   -0.000000
  -11    6    0    6    3    0.000000    0.000000
  -11    6    0    7    3   -0.000001   -0.000000
  -11    6    0    8    3   -0.000001    0.000000
  -11    6    0    9    3   -0.000002   -0.000000
  -11    6    0   10    3    0.000001    0.000000
  -11    6    0   11    3    0.000000    0.000000
  -11    6    0    1    4    0.000000    0.000000
  -11    6    0    2    4    0.000001   -0.000000
  -11    6    0    3    4    0.000001    0.000000
  -11    6    0    4    4   -0.000000    0.000000
  -11    6    0    5    4   -0.000000    0.000000
  -11    6    0    6    4    0.000000    0.000000
  -11    6    0    7    4   -0.000001   -0.000000
  -11    6    0    8    4    0.000001   -0.000000
  -11    6    0    9    4    0.000002    0.000000
  -11    6    0   10    4    0.000001   -0.000000
  -11    6    0   11    4    0.000000    0.000000
  -11    6    0    1    5    0.000000    0.000000
  -11    6    0    2    5    0.000001   -0.000000
  -11    6    0    3    5    0.000001   -0.000000
  -11    6    0    4    5    0.000000   -0.000000
  -11    6    0    5    5   -0.000000    0.000000
  -11    6    0    6    5    0.000001    0.000000
  -11    6    0    7    5    0.000000    0.000000
  -11    6    0    8    5    0.000001   -0.000000
  -11    6    0    9    5   -0.000001    0.000000
  -11    6    0   10    5    0.000002    0.000000
  -11    6    0   11    5    0.000001   -0.000000
  -11    6    0    1    6   -0.000001    0.000000
  -11    6    0    2    6   -0.000000   -0.000000
  -11    6    0    3    6   -0.000000    0.000000
  -11    6    0    4    6   -0.000001    0.000000
  -11    6    0    5    6    0.000001    0.000000
  -11    6    0    6    6   -0.000000   -0.000000
  -11    6    0    7    6   -0.000000   -0.000000
  -11    6    0    8    6    0.000001   -0.000000
  -11    6    0    9    6   -0.000001    0.000000
  -11    6    0   10    6   -0.000002   -0.000000
  -11    6    0   11    6   -0.000001   -0.000000
  -11    6    0    1    7    0.000001   -0.000000
  -11    6    0    2    7    0.000001   -0.000000
  -11    6    0    3    7    0.000001    0.000000
  -11    6    0    4    7    0.000001    0.000000
  -11    6    0    5    7   -0.000001   -0.000000
  -11    6    0    6    7    0.000001   -0.000000
  -11    6    0    7    7   -0.000001   -0.000000
  -11    6    0    8    7    0.000000    0.000000
  -11    6    0    9    7   -0.000000   -0.000000
  -11    6    0   10    7    0.000002    0.000000
  -11    6    0   11    7    0.000002    0.000000
  -11    6    0    1    8   -0.000001   -0.000000
  -11    6    0    2    8    0.000001    0.000000
  -11    6    0    3    8   -0.000000    0.000000
  -11    6    0    4    8    0.000000   -0.000000
  -11    6    0    5    8    0.000001    0.000000
  -11    6    0    6    8    0.000001   -0.000000
  -11    6    0    7    8   -0.000000    0.000000
  -11    6    0    8    8    0.000000    0.000000
  -11    6    0    9    8   -0.000000    0.000000
  -11    6    0   10    8    0.000000    0.000000
  -11    6    0   11    8   -0.000000    0.000000
  -11    6    0    1    9   -0.000000    0.000000
  -11    6    0    2    9    0.000000   -0.000000
  -11    6    0    3    9   -0.000001   -0.000000
  -11    6    0    4    9    0.000001   -0.000000
  -11    6    0    5    9    0.000001   -0.000000
  -11    6    0    6    9    0.000001   -0.000000
  -11    6    0    7    9   -0.000000    0.000000
  -11    6    0    8    9   -0.000000    0.000000
  -11    6    0    9    9   -0.000001   -0.000000
  -11    6    0   10    9   -0.000000    0.000000
  -11    6    0   11    9   -0.000000    0.000000
  -11    6    0    1   10   -0.000000   -0.000000
  -11    6    0    2   10   -0.000000   -0.000000
  -11    6    0    3   10   -0.000001    0.000000
  -11    6    0    4   10   -0.000001   -0.000000
  -11    6    0    5   10    0.000001    0.000000
  -11    6    0    6   10   -0.000001    0.000000
  -11    6    0    7   10   -0.000000    0.000000
  -11    6    0    8   10   -0.000000   -0.000000
  -11    6    0    9   10   -0.000000   -0.000000
  -11    6    0   10   10   -0.000002   -0.000000
  -11    6    0   11   10   -0.000000   -0.000000
  -11    6    0    1   11    0.000000    0.000000
  -11    6    0    2   11    0.000000   -0.000000
  -11    6    0    3   11    0.000000   -0.000000
  -11    6    0    4   11    0.000000    0.000000
  -11    6    0    5   11    0.000000    0.000000
  -11    6    0    6   11   -0.000000    0.000000
  -11    6    0    7   11    0.000000    0.000000
  -11    6    0    8   11   -0.000000    0.000000
  -11    6    0    9   11    0.000000    0.000000
  -11    6    0   10   11   -0.000001   -0.000000
  -11    6    0   11   11   -0.000000    0.000000
  -11    7    0    1    1    0.000000   -0.000000
  -11    7    0    2    1   -0.000000    0.000000
  -11    7    0    3    1    0.000001    0.000000
  -11    7    0    4    1   -0.000000    0.000000
  -11    7    0    5    1    0.000000    0.000000
  -11    7    0    6    1   -0.000000    0.000000
  -11    7    0    7    1   -0.000000   -0.000000
  -11    7    0    8    1   -0.000001    0.000000
  -11    7    0    9    1   -0.000001    0.000000
  -11    7    0   10    1    0.000000   -0.000000
  -11    7    0   11    1   -0.000000    0.000000
  -11    7    0    1    2   -0.000000    0.000000
  -11    7    0    2    2    0.000000   -0.000000
  -11    7    0    3    2   -0.000000    0.000000
  -11    7    0    4    2    0.000001    0.000000
  -11    7    0    5    2    0.000000   -0.000000
  -11    7    0    6    2   -0.000000   -0.000000
  -11    7    0    7    2   -0.000000    0.000000
  -11    7    0    8    2    0.000001   -0.000000
  -11    7    0    9    2    0.000001   -0.000000
  -11    7    0   10    2    0.000000    0.000000
  -11    7    0   11    2   -0.000000   -0.000000
  -11    7    0    1    3    0.000001    0.000000
  -11    7    0    2    3    0.000000    0.000000
  -11    7    0    3    3    0.000002    0.000000
  -11    7    0    4    3   -0.000001    0.000000
  -11    7    0    5    3   -0.000000   -0.000000
  -11    7    0    6    3    0.000000    0.000000
  -11    7    0    7    3    0.000000   -0.000000
  -11    7    0    8    3    0.000001    0.000000
  -11    7    0    9    3    0.000002   -0.000000
  -11    7    0   10    3    0.000000    0.000000
  -11    7    0   11    3   -0.000000    0.000000
  -11    7    0    1    4    0.000000   -0.000000
  -11    7    0    2    4    0.000001    0.000000
  -11    7    0    3    4   -0.000001    0.000000
  -11    7    0    4    4    0.000002   -0.000000
  -11    7    0    5    4   -0.000000    0.000000
  -11    7    0    6    4    0.000000    0.000000
  -11    7    0    7    4    0.000000   -0.000000
  -11    7    0    8    4   -0.000001    0.000000
  -11    7    0    9    4   -0.000002   -0.000000
  -11    7    0   10    4    0.000000   -0.000000
  -11    7    0   11    4   -0.000000    0.000000
  -11    7    0    1    5   -0.000000   -0.000000
  -11    7    0    2    5    0.000001   -0.000000
  -11    7    0    3    5   -0.000001    0.000000
  -11    7    0    4    5    0.000001    0.000000
  -11    7    0    5    5   -0.000000    0.000000
  -11    7    0    6    5   -0.000001    0.000000
  -11    7    0    7    5    0.000000    0.000000
  -11    7    0    8    5   -0.000001    0.000000
  -11    7    0    9    5    0.000000   -0.000000
  -11    7    0   10    5    0.000001    0.000000
  -11    7    0   11    5    0.000000    0.000000
  -11    7    0    1    6   -0.000001    0.000000
  -11    7    0    2    6    0.000000   -0.000000
  -11    7    0    3    6   -0.000001   -0.000000
  -11    7    0    4    6    0.000001   -0.000000
  -11    7    0    5    6   -0.000001    0.000000
  -11    7    0    6    6   -0.000000   -0.000000
  -11    7    0    7    6   -0.000000    0.000000
  -11    7    0    8    6   -0.000001   -0.000000
  -11    7    0    9    6    0.000000   -0.000000
  -11    7    0   10    6   -0.000001    0.000000
  -11    7    0   11    6   -0.000000   -0.000000
  -11    7    0    1    7    0.000000    0.000000
  -11    7    0    2    7    0.000000    0.000000
  -11    7    0    3    7    0.000000   -0.000000
  -11    7    0    4    7    0.000000    0.000000
  -11    7    0    5    7   -0.000000    0.000000
  -11    7    0    6    7    0.000000    0.000000
  -11    7    0    7    7    0.000001   -0.000000
  -11    7    0    8    7    0.000000    0.000000
  -11    7    0    9    7   -0.000000   -0.000000
  -11    7    0   10    7    0.000002    0.000000
  -11    7    0   11    7    0.000001   -0.000000
  -11    7    0    1    8    0.000000   -0.000000
  -11    7    0    2    8   -0.000000   -0.000000
  -11    7    0    3    8   -0.000002   -0.000000
  -11    7    0    4    8    0.000002    0.000000
  -11    7    0    5    8   -0.000000   -0.000000
  -11    7    0    6    8   -0.000000   -0.000000
  -11    7    0    7    8   -0.000000    0.000000
  -11    7    0    8    8   -0.000001    0.000000
  -11    7    0    9    8    0.000000   -0.000000
  -11    7    0   10    8   -0.000000    0.000000
  -11    7    0   11    8   -0.000000   -0.000000
  -11    7    0    1    9    0.000001    0.000000
  -11    7    0    2    9   -0.000001   -0.000000
  -11    7    0    3    9    0.000001   -0.000000
  -11    7    0    4    9   -0.000001    0.000000
  -11    7    0    5    9   -0.000000    0.000000
  -11    7    0    6    9   -0.000000    0.000000
  -11    7    0    7    9   -0.000000   -0.000000
  -11    7    0    8    9    0.000001    0.000000
  -11    7    0    9    9    0.000001   -0.000000
  -11    7    0   10    9   -0.000000    0.000000
  -11    7    0   11    9   -0.000000   -0.000000
  -11    7    0    1   10    0.000000   -0.000000
  -11    7    0    2   10    0.000000    0.000000
  -11    7    0    3   10    0.000000    0.000000
  -11    7    0    4   10    0.000000    0.000000
  -11    7    0    5   10   -0.000000    0.000000
  -11    7    0    6   10    0.000000   -0.000000
  -11    7    0    7   10   -0.000001    0.000000
  -11    7    0    8   10    0.000000   -0.000000
  -11    7    0    9   10    0.000000   -0.000000
  -11    7    0   10   10   -0.000001   -0.000000
  -11    7    0   11   10    0.000000   -0.000000
  -11    7    0    1   11   -0.000000    0.000000
  -11    7    0    2   11   -0.000000    0.000000
  -11    7    0    3   11   -0.000000    0.000000
  -11    7    0    4   11   -0.000000   -0.000000
  -11    7    0    5   11    0.000000   -0.000000
  -11    7    0    6   11   -0.000000   -0.000000
  -11    7    0    7   11   -0.000000    0.000000
  -11    7    0    8   11    0.000000    0.000000
  -11    7    0    9   11   -0.000000   -0.000000
  -11    7    0   10   11   -0.000001    0.000000
  -11    7    0   11   11   -0.000000    0.000000
  -11    8    0    1    1   -0.000000   -0.000000
  -11    8    0    2    1    0.000001   -0.000000
  -11    8    0    3    1   -0.000001    0.000000
  -11    8    0    4    1    0.000000   -0.000000
  -11    8    0    5    1    0.000000   -0.000000
  -11    8    0    6    1    0.000000    0.000000
  -11    8    0    7    1    0.000000    0.000000
  -11    8    0    8    1    0.000000   -0.000000
  -11    8    0    9    1   -0.000000   -0.000000
  -11    8    0   10    1   -0.000000    0.000000
  -11    8    0   11    1   -0.000000   -0.000000
  -11    8    0    1    2    0.000001    0.000000
  -11    8    0    2    2   -0.000000    0.000000
  -11    8    0    3    2    0.000000   -0.000000
  -11    8    0    4    2   -0.000001    0.000000
  -11    8    0    5    2   -0.000000   -0.000000
  -11    8    0    6    2   -0.000000    0.000000
  -11    8    0    7    2    0.000000    0.000000
  -11    8    0    8    2   -0.000000   -0.000000
  -11    8    0    9    2    0.000000    0.000000
  -11    8    0   10    2   -0.000000    0.000000
  -11    8    0   11    2   -0.000000   -0.000000
  -11    8    0    1    3    0.000000   -0.000000
  -11    8    0    2    3    0.000000    0.000000
  -11    8    0    3    3   -0.000001   -0.000000
  -11    8    0    4    3    0.000003   -0.000000
  -11    8    0    5    3    0.000000   -0.000000
  -11    8    0    6    3   -0.000001    0.000000
  -11    8    0    7    3   -0.000000    0.000000
  -11    8    0    8    3   -0.000000   -0.000000
  -11    8    0    9    3   -0.000002   -0.000000
  -11    8    0   10    3   -0.000000   -0.000000
  -11    8    0   11    3   -0.000000   -0.000000
  -11    8    0    1    4    0.000000    0.000000
  -11    8    0    2    4    0.000000   -0.000000
  -11    8    0    3    4    0.000003    0.000000
  -11    8    0    4    4   -0.000001   -0.000000
  -11    8    0    5    4    0.000001    0.000000
  -11    8    0    6    4   -0.000000    0.000000
  -11    8    0    7    4   -0.000000    0.000000
  -11    8    0    8    4    0.000000   -0.000000
  -11    8    0    9    4    0.000002    0.000000
  -11    8    0   10    4   -0.000000    0.000000
  -11    8    0   11    4   -0.000000   -0.000000
  -11    8    0    1    5    0.000001   -0.000000
  -11    8    0    2    5   -0.000000    0.000000
  -11    8    0    3    5    0.000001    0.000000
  -11    8    0    4    5   -0.000001    0.000000
  -11    8    0    5    5    0.000000   -0.000000
  -11    8    0    6    5   -0.000001    0.000000
  -11    8    0    7    5   -0.000001   -0.000000
  -11    8    0    8    5   -0.000000    0.000000
  -11    8    0    9    5    0.000000   -0.000000
  -11    8    0   10    5   -0.000000   -0.000000
  -11    8    0   11    5   -0.000000    0.000000
  -11    8    0    1    6    0.000000    0.000000
  -11    8    0    2    6   -0.000001    0.000000
  -11    8    0    3    6    0.000001   -0.000000
  -11    8    0    4    6   -0.000001    0.000000
  -11    8    0    5    6   -0.000001    0.000000
  -11    8    0    6    6    0.000000   -0.000000
  -11    8    0    7    6    0.000001    0.000000
  -11    8    0    8    6   -0.000000    0.000000
  -11    8    0    9    6    0.000000   -0.000000
  -11    8    0   10    6    0.000000    0.000000
  -11    8    0   11    6    0.000000    0.000000
  -11    8    0    1    7    0.000000   -0.000000
  -11    8    0    2    7    0.000000   -0.000000
  -11    8    0    3    7   -0.000001    0.000000
  -11    8    0    4    7   -0.000001    0.000000
  -11    8    0    5    7    0.000000   -0.000000
  -11    8    0    6    7   -0.000000   -0.000000
  -11    8    0    7    7   -0.000000    0.000000
  -11    8    0    8    7   -0.000000    0.000000
  -11    8    0    9    7    0.000000    0.000000
  -11    8    0   10    7    0.000000    0.000000
  -11    8    0   11    7    0.000000    0.000000
  -11    8    0    1    8    0.000001   -0.000000
  -11    8    0    2    8   -0.000001    0.000000
  -11    8    0    3    8    0.000003   -0.000000
  -11    8    0    4    8   -0.000003    0.000000
  -11    8    0    5    8   -0.000001   -0.000000
  -11    8    0    6    8   -0.000001    0.000000
  -11    8    0    7    8   -0.000000    0.000000
  -11    8    0    8    8    0.000000    0.000000
  -11    8    0    9    8    0.000001    0.000000
  -11    8    0   10    8    0.000000   -0.000000
  -11    8    0   11    8   -0.000000   -0.000000
  -11    8    0    1    9   -0.000000   -0.000000
  -11    8    0    2    9    0.000000    0.000000
  -11    8    0    3    9   -0.000002    0.000000
  -11    8    0    4    9    0.000002   -0.000000
  -11    8    0    5    9   -0.000001    0.000000
  -11    8    0    6    9   -0.000001   -0.000000
  -11    8    0    7    9    0.000000   -0.000000
  -11    8    0    8    9   -0.000001   -0.000000
  -11    8    0    9    9   -0.000001    0.000000
  -11    8    0   10    9    0.000000    0.000000
  -11    8    0   11    9    0.000000    0.000000
  -11    8    0    1   10   -0.000000   -0.000000
  -11    8    0    2   10   -0.000000    0.000000
  -11    8    0    3   10   -0.000001    0.000000
  -11    8    0    4   10   -0.000001   -0.000000
  -11    8    0    5   10   -0.000000   -0.000000
  -11    8    0    6   10    0.000000    0.000000
  -11    8    0    7   10   -0.000001    0.000000
  -11    8    0    8   10   -0.000000    0.000000
  -11    8    0    9   10    0.000000   -0.000000
  -11    8    0   10   10   -0.000000    0.000000
  -11    8    0   11   10    0.000000   -0.000000
  -11    8    0    1   11    0.000000    0.000000
  -11    8    0    2   11    0.000000   -0.000000
  -11    8    0    3   11   -0.000001   -0.000000
  -11    8    0    4   11   -0.000001   -0.000000
  -11    8    0    5   11   -0.000000   -0.000000
  -11    8    0    6   11    0.000000    0.000000
  -11    8    0    7   11   -0.000001   -0.000000
  -11    8    0    8   11    0.000000    0.000000
  -11    8    0    9   11   -0.000000   -0.000000
  -11    8    0   10   11   -0.000000   -0.000000
  -11    8    0   11   11   -0.000000    0.000000
  -11    9    0    1    1   -0.000000   -0.000000
  -11    9    0    2    1   -0.000000   -0.000000
  -11    9    0    3    1    0.000000    0.000000
  -11    9    0    4    1   -0.000000    0.000000
  -11    9    0    5    1    0.000000    0.000000
  -11    9    0    6    1    0.000000    0.000000
  -11    9    0    7    1    0.000000    0.000000
  -11    9    0    8    1    0.000000   -0.000000
  -11    9    0    9    1   -0.000000   -0.000000
  -11    9    0   10    1   -0.000000    0.000000
  -11    9    0   11    1   -0.000000    0.000000
  -11    9    0    1    2   -0.000000   -0.000000
  -11    9    0    2    2   -0.000000    0.000000
  -11    9    0    3    2    0.000000    0.000000
  -11    9    0    4    2    0.000000    0.000000
  -11    9    0    5    2   -0.000000    0.000000
  -11    9    0    6    2   -0.000000    0.000000
  -11    9    0    7    2   -0.000000   -0.000000
  -11    9    0    8    2   -0.000000    0.000000
  -11    9    0    9    2   -0.000000    0.000000
  -11    9    0   10    2   -0.000000   -0.000000
  -11    9    0   11    2   -0.000000   -0.000000
  -11    9    0    1    3    0.000000   -0.000000
  -11    9    0    2    3    0.000000    0.000000
  -11    9    0    3    3    0.000003   -0.000000
  -11    9    0    4    3   -0.000001    0.000000
  -11    9    0    5    3    0.000000    0.000000
  -11    9    0    6    3    0.000000    0.000000
  -11    9    0    7    3   -0.000001   -0.000000
  -11    9    0    8    3    0.000000    0.000000
  -11    9    0    9    3    0.000003   -0.000000
  -11    9    0   10    3   -0.000000   -0.000000
  -11    9    0   11    3   -0.000000   -0.000000
  -11    9    0    1    4   -0.000000    0.000000
  -11    9    0    2    4    0.000000   -0.000000
  -11    9    0    3    4   -0.000001    0.000000
  -11    9    0    4    4    0.000003   -0.000000
  -11    9    0    5    4    0.000000    0.000000
  -11    9    0    6    4    0.000000    0.000000
  -11    9    0    7    4   -0.000001   -0.000000
  -11    9    0    8    4   -0.000000   -0.000000
  -11    9    0    9    4   -0.000003    0.000000
  -11    9    0   10    4    0.000000    0.000000
  -11    9    0   11    4    0.000000    0.000000
  -11    9    0    1    5   -0.000000    0.000000
  -11    9    0    2    5    0.000000    0.000000
  -11    9    0    3    5   -0.000000    0.000000
  -11    9    0    4    5   -0.000000    0.000000
  -11    9    0    5    5    0.000000   -0.000000
  -11    9    0    6    5    0.000001    0.000000
  -11    9    0    7    5    0.000000   -0.000000
  -11    9    0    8    5    0.000001   -0.000000
  -11    9    0    9    5    0.000000   -0.000000
  -11    9    0   10    5   -0.000000   -0.000000
  -11    9    0   11    5   -0.000000    0.000000
  -11    9    0    1    6   -0.000000    0.000000
  -11    9    0    2    6    0.000000   -0.000000
  -11    9    0    3    6    0.000000   -0.000000
  -11    9    0    4    6   -0.000000    0.000000
  -11    9    0    5    6    0.000001   -0.000000
  -11    9    0    6    6    0.000000   -0.000000
  -11    9    0    7    6   -0.000000    0.000000
  -11    9    0    8    6    0.000001   -0.000000
  -11    9    0    9    6    0.000000   -0.000000
  -11    9    0   10    6    0.000000   -0.000000
  -11    9    0   11    6    0.000000   -0.000000
  -11    9    0    1    7   -0.000000    0.000000
  -11    9    0    2    7   -0.000000    0.000000
  -11    9    0    3    7   -0.000001   -0.000000
  -11    9    0    4    7   -0.000001   -0.000000
  -11    9    0    5    7    0.000000   -0.000000
  -11    9    0    6    7   -0.000000   -0.000000
  -11    9    0    7    7   -0.000000    0.000000
  -11    9    0    8    7    0.000000   -0.000000
  -11    9    0    9    7   -0.000000   -0.000000
  -11    9    0   10    7    0.000000   -0.000000
  -11    9    0   11    7   -0.000000    0.000000
  -11    9    0    1    8   -0.000000   -0.000000
  -11    9    0    2    8    0.000000    0.000000
  -11    9    0    3    8    0.000000   -0.000000
  -11    9    0    4    8    0.000000    0.000000
  -11    9    0    5    8    0.000001   -0.000000
  -11    9    0    6    8    0.000001   -0.000000
  -11    9    0    7    8   -0.000000    0.000000
  -11    9    0    8    8    0.000001    0.000000
  -11    9    0    9    8   -0.000000    0.000000
  -11    9    0   10    8    0.000000   -0.000000
  -11    9    0   11    8    0.000000    0.000000
  -11    9    0    1    9    0.000000   -0.000000
  -11    9    0    2    9    0.000000    0.000000
  -11    9    0    3    9    0.000003    0.000000
  -11    9    0    4    9   -0.000003    0.000000
  -11    9    0    5    9    0.000000    0.000000
  -11    9    0    6    9   -0.000000    0.000000
  -11    9    0    7    9   -0.000000    0.000000
  -11    9    0    8    9    0.000000    0.000000
  -11    9    0    9    9    0.000003    0.000000
  -11    9    0   10    9    0.000000   -0.000000
  -11    9    0   11    9   -0.000000    0.000000
  -11    9    0    1   10   -0.000000   -0.000000
  -11    9    0    2   10   -0.000000    0.000000
  -11    9    0    3   10   -0.000000   -0.000000
  -11    9    0    4   10   -0.000000    0.000000
  -11    9    0    5   10    0.000000    0.000000
  -11    9    0    6   10   -0.000000    0.000000
  -11    9    0    7   10    0.000000   -0.000000
  -11    9    0    8   10   -0.000000   -0.000000
  -11    9    0    9   10    0.000000    0.000000
  -11    9    0   10   10    0.000001   -0.000000
  -11    9    0   11   10    0.000000   -0.000000
  -11    9    0    1   11   -0.000000    0.000000
  -11    9    0    2   11   -0.000000    0.000000
  -11    9    0    3   11   -0.000000   -0.000000
  -11    9    0    4   11    0.000000   -0.000000
  -11    9    0    5   11   -0.000000    0.000000
  -11    9    0    6   11    0.000000    0.000000
  -11    9    0    7   11    0.000000   -0.000000
  -11    9    0    8   11    0.000000   -0.000000
  -11    9    0    9   11   -0.000000    0.000000
  -11    9    0   10   11    0.000000    0.000000
  -11    9    0   11   11   -0.000000    0.000000
  -10    0    0    1    1    0.000004    0.000000
  -10    0    0    2    1   -0.000001    0.000000
  -10    0    0    3    1    0.000002    0.000000
  -10    0    0    4    1   -0.000001    0.000000
  -10    0    0    5    1   -0.000000    0.000000
  -10    0    0    6    1   -0.000000    0.000000
  -10    0    0    7    1   -0.000000   -0.000000
  -10    0    0    8    1   -0.000002    0.000000
  -10    0    0    9    1   -0.000002   -0.000000
  -10    0    0   10    1    0.000001    0.000000
  -10    0    0   11    1   -0.000000    0.000000
  -10    0    0    1    2   -0.000001   -0.000000
  -10    0    0    2    2    0.000004    0.000000
  -10    0    0    3    2   -0.000001   -0.000000
  -10    0    0    4    2    0.000002   -0.000000
  -10    0    0    5    2    0.000000   -0.000000
  -10    0    0    6    2    0.000000    0.000000
  -10    0    0    7    2   -0.000000   -0.000000
  -10    0    0    8    2    0.000002   -0.000000
  -10    0    0    9    2    0.000002   -0.000000
  -10    0    0   10    2    0.000001    0.000000
  -10    0    0   11    2   -0.000000    0.000000
  -10    0    0    1    3    0.000002   -0.000000
  -10    0    0    2    3   -0.000001    0.000000
  -10    0    0    3    3    0.000001    0.000000
  -10    0    0    4    3   -0.000000   -0.000000
  -10    0    0    5    3    0.000000    0.000000
  -10    0    0    6    3    0.000000    0.000000
  -10    0    0    7    3   -0.000000    0.000000
  -10    0    0    8    3   -0.000001    0.000000
  -10    0    0    9    3   -0.000002    0.000000
  -10    0    0   10    3    0.000001    0.000000
  -10    0    0   11    3   -0.000000    0.000000
  -10    0    0    1    4   -0.000001   -0.000000
  -10    0    0    2    4    0.000002    0.000000
  -10    0    0    3    4   -0.000000    0.000000
  -10    0    0    4    4    0.000001    0.000000
  -10    0    0    5    4   -0.000000    0.000000
  -10    0    0    6    4   -0.000000    0.000000
  -10    0    0    7    4   -0.000000   -0.000000
  -10    0    0    8    4    0.000001    0.000000
  -10    0    0    9    4    0.000002   -0.000000
  -10    0    0   10    4    0.000001   -0.000000
  -10    0    0   11    4   -0.000000    0.000000
  -10    0    0    1    5   -0.000000   -0.000000
  -10    0    0    2    5    0.000000    0.000000
  -10    0    0    3    5    0.000000   -0.000000
  -10    0    0    4    5   -0.000000   -0.000000
  -10    0    0    5    5    0.000000    0.000000
  -10    0    0    6    5    0.000001    0.000000
  -10    0    0    7    5    0.000000   -0.000000
  -10    0    0    8    5    0.000001    0.000000
  -10    0    0    9    5   -0.000000   -0.000000
  -10    0    0   10    5    0.000000   -0.000000
  -10    0    0   11    5   -0.000000   -0.000000
  -10    0    0    1    6   -0.000000   -0.000000
  -10    0    0    2    6    0.000000   -0.000000
  -10    0    0    3    6    0.000000   -0.000000
  -10    0    0    4    6   -0.000000   -0.000000
  -10    0    0    5    6    0.000001   -0.000000
  -10    0    0    6    6    0.000000    0.000000
  -10    0    0    7    6   -0.000000    0.000000
  -10    0    0    8    6    0.000001    0.000000
  -10    0    0    9    6   -0.000000    0.000000
  -10    0    0   10    6   -0.000000   -0.000000
  -10    0    0   11    6    0.000000    0.000000
  -10    0    0    1    7   -0.000000    0.000000
  -10    0    0    2    7   -0.000000    0.000000
  -10    0    0    3    7   -0.000000   -0.000000
  -10    0    0    4    7   -0.000000    0.000000
  -10    0    0    5    7    0.000000    0.000000
  -10    0    0    6    7   -0.000000   -0.000000
  -10    0    0    7    7    0.000000    0.000000
  -10    0    0    8    7    0.000000    0.000000
  -10    0    0    9    7    0.000000    0.000000
  -10    0    0   10    7    0.000000    0.000000
  -10    0    0   11    7   -0.000000   -0.000000
  -10    0    0    1    8   -0.000002   -0.000000
  -10    0    0    2    8    0.000002    0.000000
  -10    0    0    3    8   -0.000001   -0.000000
  -10    0    0    4    8    0.000001   -0.000000
  -10    0    0    5    8    0.000001   -0.000000
  -10    0    0    6    8    0.000001   -0.000000
  -10    0    0    7    8    0.000000   -0.000000
  -10    0    0    8    8    0.000004    0.000000
  -10    0    0    9    8    0.000001   -0.000000
  -10    0    0   10    8   -0.000000   -0.000000
  -10    0    0   11    8   -0.000000    0.000000
  -10    0    0    1    9   -0.000002    0.000000
  -10    0    0    2    9    0.000002    0.000000
  -10    0    0    3    9   -0.000002   -0.000000
  -10    0    0    4    9    0.000002    0.000000
  -10    0    0    5    9   -0.000000    0.000000
  -10    0    0    6    9   -0.000000   -0.000000
  -10    0    0    7    9    0.000000   -0.000000
  -10    0    0    8    9    0.000001    0.000000
  -10    0    0    9    9    0.000002    0.000000
  -10    0    0   10    9    0.000000    0.000000
  -10    0    0   11    9    0.000000   -0.000000
  -10    0    0    1   10    0.000001   -0.000000
  -10    0    0    2   10    0.000001   -0.000000
  -10    0    0    3   10    0.000001   -0.000000
  -10    0    0    4   10    0.000001    0.000000
  -10    0    0    5   10    0.000000    0.000000
  -10    0    0    6   10   -0.000000    0.000000
[...]
   12   -7    0    9    8    0.000000   -0.000000
   12   -7    0   10    8   -0.000000    0.000000
   12   -7    0   11    8   -0.000000    0.000000
   12   -7    0    1    9   -0.000001   -0.000000
   12   -7    0    2    9    0.000001    0.000000
   12   -7    0    3    9   -0.000001    0.000000
   12   -7    0    4    9    0.000001   -0.000000
   12   -7    0    5    9   -0.000001    0.000000
   12   -7    0    6    9   -0.000001    0.000000
   12   -7    0    7    9    0.000000    0.000000
   12   -7    0    8    9   -0.000001    0.000000
   12   -7    0    9    9    0.000000   -0.000000
   12   -7    0   10    9   -0.000000   -0.000000
   12   -7    0   11    9   -0.000000    0.000000
   12   -7    0    1   10   -0.000000   -0.000000
   12   -7    0    2   10   -0.000000   -0.000000
   12   -7    0    3   10   -0.000000   -0.000000
   12   -7    0    4   10   -0.000000    0.000000
   12   -7    0    5   10   -0.000001   -0.000000
   12   -7    0    6   10    0.000001    0.000000
   12   -7    0    7   10   -0.000002    0.000000
   12   -7    0    8   10    0.000000    0.000000
   12   -7    0    9   10   -0.000000    0.000000
   12   -7    0   10   10    0.000000    0.000000
   12   -7    0   11   10    0.000000   -0.000000
   12   -7    0    1   11   -0.000000   -0.000000
   12   -7    0    2   11   -0.000000   -0.000000
   12   -7    0    3   11   -0.000000    0.000000
   12   -7    0    4   11   -0.000000    0.000000
   12   -7    0    5   11   -0.000000    0.000000
   12   -7    0    6   11    0.000000    0.000000
   12   -7    0    7   11   -0.000001    0.000000
   12   -7    0    8   11   -0.000000   -0.000000
   12   -7    0    9   11    0.000000   -0.000000
   12   -7    0   10   11    0.000000   -0.000000
   12   -7    0   11   11    0.000000   -0.000000
   12   -6    0    1    1    0.000000    0.000000
   12   -6    0    2    1    0.000000    0.000000
   12   -6    0    3    1    0.000000   -0.000000
   12   -6    0    4    1    0.000000   -0.000000
   12   -6    0    5    1   -0.000000    0.000000
   12   -6    0    6    1    0.000000    0.000000
   12   -6    0    7    1   -0.000001   -0.000000
   12   -6    0    8    1    0.000000    0.000000
   12   -6    0    9    1    0.000002   -0.000000
   12   -6    0   10    1    0.000001   -0.000000
   12   -6    0   11    1    0.000000    0.000000
   12   -6    0    1    2    0.000000    0.000000
   12   -6    0    2    2    0.000000   -0.000000
   12   -6    0    3    2    0.000000   -0.000000
   12   -6    0    4    2    0.000000    0.000000
   12   -6    0    5    2   -0.000000   -0.000000
   12   -6    0    6    2    0.000000    0.000000
   12   -6    0    7    2   -0.000001   -0.000000
   12   -6    0    8    2   -0.000000   -0.000000
   12   -6    0    9    2   -0.000002    0.000000
   12   -6    0   10    2    0.000001   -0.000000
   12   -6    0   11    2    0.000000   -0.000000
   12   -6    0    1    3    0.000000    0.000000
   12   -6    0    2    3   -0.000000    0.000000
   12   -6    0    3    3    0.000000    0.000000
   12   -6    0    4    3    0.000000   -0.000000
   12   -6    0    5    3   -0.000001    0.000000
   12   -6    0    6    3   -0.000000    0.000000
   12   -6    0    7    3    0.000001   -0.000000
   12   -6    0    8    3   -0.000001    0.000000
   12   -6    0    9    3   -0.000001    0.000000
   12   -6    0   10    3    0.000000    0.000000
   12   -6    0   11    3   -0.000001    0.000000
   12   -6    0    1    4   -0.000000    0.000000
   12   -6    0    2    4    0.000000   -0.000000
   12   -6    0    3    4    0.000000   -0.000000
   12   -6    0    4    4    0.000000    0.000000
   12   -6    0    5    4    0.000000   -0.000000
   12   -6    0    6    4    0.000001    0.000000
   12   -6    0    7    4    0.000001   -0.000000
   12   -6    0    8    4    0.000001   -0.000000
   12   -6    0    9    4    0.000001   -0.000000
   12   -6    0   10    4    0.000000   -0.000000
   12   -6    0   11    4   -0.000001    0.000000
   12   -6    0    1    5    0.000000    0.000000
   12   -6    0    2    5    0.000000   -0.000000
   12   -6    0    3    5    0.000000   -0.000000
   12   -6    0    4    5    0.000000   -0.000000
   12   -6    0    5    5    0.000001    0.000000
   12   -6    0    6    5   -0.000000   -0.000000
   12   -6    0    7    5   -0.000001    0.000000
   12   -6    0    8    5    0.000002   -0.000000
   12   -6    0    9    5    0.000002   -0.000000
   12   -6    0   10    5   -0.000001   -0.000000
   12   -6    0   11    5    0.000001   -0.000000
   12   -6    0    1    6   -0.000000   -0.000000
   12   -6    0    2    6   -0.000000   -0.000000
   12   -6    0    3    6   -0.000000   -0.000000
   12   -6    0    4    6   -0.000000   -0.000000
   12   -6    0    5    6   -0.000000    0.000000
   12   -6    0    6    6    0.000001   -0.000000
   12   -6    0    7    6    0.000001    0.000000
   12   -6    0    8    6    0.000002    0.000000
   12   -6    0    9    6    0.000002    0.000000
   12   -6    0   10    6    0.000001   -0.000000
   12   -6    0   11    6   -0.000001   -0.000000
   12   -6    0    1    7    0.000000   -0.000000
   12   -6    0    2    7    0.000000   -0.000000
   12   -6    0    3    7   -0.000000    0.000000
   12   -6    0    4    7   -0.000000    0.000000
   12   -6    0    5    7    0.000000    0.000000
   12   -6    0    6    7   -0.000000    0.000000
   12   -6    0    7    7    0.000000   -0.000000
   12   -6    0    8    7    0.000000   -0.000000
   12   -6    0    9    7    0.000000   -0.000000
   12   -6    0   10    7    0.000000   -0.000000
   12   -6    0   11    7   -0.000000    0.000000
   12   -6    0    1    8    0.000001    0.000000
   12   -6    0    2    8   -0.000001    0.000000
   12   -6    0    3    8    0.000001    0.000000
   12   -6    0    4    8   -0.000001   -0.000000
   12   -6    0    5    8    0.000001    0.000000
   12   -6    0    6    8    0.000001   -0.000000
   12   -6    0    7    8   -0.000000   -0.000000
   12   -6    0    8    8    0.000000   -0.000000
   12   -6    0    9    8   -0.000001    0.000000
   12   -6    0   10    8    0.000000   -0.000000
   12   -6    0   11    8    0.000000    0.000000
   12   -6    0    1    9    0.000001    0.000000
   12   -6    0    2    9   -0.000001    0.000000
   12   -6    0    3    9    0.000000    0.000000
   12   -6    0    4    9   -0.000000   -0.000000
   12   -6    0    5    9    0.000000    0.000000
   12   -6    0    6    9    0.000000   -0.000000
   12   -6    0    7    9   -0.000000   -0.000000
   12   -6    0    8    9   -0.000001   -0.000000
   12   -6    0    9    9   -0.000000   -0.000000
   12   -6    0   10    9    0.000000    0.000000
   12   -6    0   11    9    0.000000    0.000000
   12   -6    0    1   10   -0.000000    0.000000
   12   -6    0    2   10   -0.000000   -0.000000
   12   -6    0    3   10    0.000000    0.000000
   12   -6    0    4   10    0.000000   -0.000000
   12   -6    0    5   10   -0.000001   -0.000000
   12   -6    0    6   10    0.000001   -0.000000
   12   -6    0    7   10    0.000000   -0.000000
   12   -6    0    8   10   -0.000000   -0.000000
   12   -6    0    9   10    0.000000    0.000000
   12   -6    0   10   10    0.000000   -0.000000
   12   -6    0   11   10    0.000000    0.000000
   12   -6    0    1   11   -0.000000    0.000000
   12   -6    0    2   11   -0.000000    0.000000
   12   -6    0    3   11   -0.000000   -0.000000
   12   -6    0    4   11   -0.000000    0.000000
   12   -6    0    5   11   -0.000001   -0.000000
   12   -6    0    6   11    0.000001   -0.000000
   12   -6    0    7   11   -0.000001   -0.000000
   12   -6    0    8   11    0.000000   -0.000000
   12   -6    0    9   11   -0.000000   -0.000000
   12   -6    0   10   11    0.000000    0.000000
   12   -6    0   11   11    0.000000   -0.000000
   12   -5    0    1    1    0.000000    0.000000
   12   -5    0    2    1    0.000000   -0.000000
   12   -5    0    3    1    0.000000    0.000000
   12   -5    0    4    1    0.000001   -0.000000
   12   -5    0    5    1   -0.000000    0.000000
   12   -5    0    6    1    0.000000    0.000000
   12   -5    0    7    1    0.000000    0.000000
   12   -5    0    8    1    0.000000    0.000000
   12   -5    0    9    1    0.000001   -0.000000
   12   -5    0   10    1   -0.000000   -0.000000
   12   -5    0   11    1    0.000000    0.000000
   12   -5    0    1    2    0.000000   -0.000000
   12   -5    0    2    2    0.000000   -0.000000
   12   -5    0    3    2    0.000001    0.000000
   12   -5    0    4    2    0.000000    0.000000
   12   -5    0    5    2   -0.000000    0.000000
   12   -5    0    6    2    0.000000    0.000000
   12   -5    0    7    2    0.000000    0.000000
   12   -5    0    8    2   -0.000000    0.000000
   12   -5    0    9    2   -0.000001    0.000000
   12   -5    0   10    2   -0.000000    0.000000
   12   -5    0   11    2    0.000000    0.000000
   12   -5    0    1    3    0.000000   -0.000000
   12   -5    0    2    3   -0.000000   -0.000000
   12   -5    0    3    3    0.000000    0.000000
   12   -5    0    4    3    0.000000   -0.000000
   12   -5    0    5    3    0.000001    0.000000
   12   -5    0    6    3   -0.000001    0.000000
   12   -5    0    7    3   -0.000000    0.000000
   12   -5    0    8    3    0.000001    0.000000
   12   -5    0    9    3   -0.000001   -0.000000
   12   -5    0   10    3   -0.000000    0.000000
   12   -5    0   11    3   -0.000000    0.000000
   12   -5    0    1    4   -0.000000   -0.000000
   12   -5    0    2    4    0.000000   -0.000000
   12   -5    0    3    4    0.000000   -0.000000
   12   -5    0    4    4    0.000000    0.000000
   12   -5    0    5    4    0.000001   -0.000000
   12   -5    0    6    4   -0.000001    0.000000
   12   -5    0    7    4   -0.000000    0.000000
   12   -5    0    8    4   -0.000001   -0.000000
   12   -5    0    9    4    0.000001   -0.000000
   12   -5    0   10    4   -0.000000    0.000000
   12   -5    0   11    4   -0.000000   -0.000000
   12   -5    0    1    5   -0.000000   -0.000000
   12   -5    0    2    5   -0.000000    0.000000
   12   -5    0    3    5    0.000000   -0.000000
   12   -5    0    4    5    0.000001    0.000000
   12   -5    0    5    5   -0.000000    0.000000
   12   -5    0    6    5   -0.000000    0.000000
   12   -5    0    7    5    0.000000   -0.000000
   12   -5    0    8    5   -0.000000   -0.000000
   12   -5    0    9    5    0.000000   -0.000000
   12   -5    0   10    5    0.000000    0.000000
   12   -5    0   11    5    0.000000   -0.000000
   12   -5    0    1    6    0.000000    0.000000
   12   -5    0    2    6    0.000000    0.000000
   12   -5    0    3    6   -0.000001   -0.000000
   12   -5    0    4    6   -0.000000   -0.000000
   12   -5    0    5    6   -0.000000   -0.000000
   12   -5    0    6    6   -0.000000   -0.000000
   12   -5    0    7    6   -0.000000   -0.000000
   12   -5    0    8    6   -0.000000   -0.000000
   12   -5    0    9    6    0.000000    0.000000
   12   -5    0   10    6   -0.000000   -0.000000
   12   -5    0   11    6   -0.000000   -0.000000
   12   -5    0    1    7   -0.000001   -0.000000
   12   -5    0    2    7   -0.000001    0.000000
   12   -5    0    3    7    0.000000   -0.000000
   12   -5    0    4    7    0.000000    0.000000
   12   -5    0    5    7    0.000001    0.000000
   12   -5    0    6    7   -0.000001    0.000000
   12   -5    0    7    7    0.000001    0.000000
   12   -5    0    8    7    0.000000    0.000000
   12   -5    0    9    7   -0.000000   -0.000000
   12   -5    0   10    7   -0.000001   -0.000000
   12   -5    0   11    7   -0.000000    0.000000
   12   -5    0    1    8   -0.000000   -0.000000
   12   -5    0    2    8    0.000000    0.000000
   12   -5    0    3    8   -0.000000   -0.000000
   12   -5    0    4    8    0.000000    0.000000
   12   -5    0    5    8   -0.000000   -0.000000
   12   -5    0    6    8   -0.000000   -0.000000
   12   -5    0    7    8    0.000000   -0.000000
   12   -5    0    8    8   -0.000000   -0.000000
   12   -5    0    9    8    0.000000   -0.000000
   12   -5    0   10    8    0.000000    0.000000
   12   -5    0   11    8   -0.000000   -0.000000
   12   -5    0    1    9   -0.000000   -0.000000
   12   -5    0    2    9    0.000000    0.000000
   12   -5    0    3    9    0.000001   -0.000000
   12   -5    0    4    9   -0.000001   -0.000000
   12   -5    0    5    9    0.000001    0.000000
   12   -5    0    6    9    0.000001   -0.000000
   12   -5    0    7    9    0.000000   -0.000000
   12   -5    0    8    9    0.000001   -0.000000
   12   -5    0    9    9   -0.000001   -0.000000
   12   -5    0   10    9    0.000000    0.000000
   12   -5    0   11    9   -0.000000   -0.000000
   12   -5    0    1   10    0.000000   -0.000000
   12   -5    0    2   10    0.000000   -0.000000
   12   -5    0    3   10    0.000000    0.000000
   12   -5    0    4   10    0.000000    0.000000
   12   -5    0    5   10    0.000000   -0.000000
   12   -5    0    6   10   -0.000000   -0.000000
   12   -5    0    7   10    0.000001    0.000000
   12   -5    0    8   10   -0.000000   -0.000000
   12   -5    0    9   10   -0.000000    0.000000
   12   -5    0   10   10   -0.000001    0.000000
   12   -5    0   11   10   -0.000000   -0.000000
   12   -5    0    1   11   -0.000000    0.000000
   12   -5    0    2   11   -0.000000    0.000000
   12   -5    0    3   11   -0.000000    0.000000
   12   -5    0    4   11   -0.000000   -0.000000
   12   -5    0    5   11   -0.000001   -0.000000
   12   -5    0    6   11    0.000001   -0.000000
   12   -5    0    7   11   -0.000001   -0.000000
   12   -5    0    8   11    0.000000    0.000000
   12   -5    0    9   11    0.000000   -0.000000
   12   -5    0   10   11    0.000001   -0.000000
   12   -5    0   11   11    0.000000    0.000000
   13   -7    0    1    1    0.000000    0.000000
   13   -7    0    2    1   -0.000000    0.000000
   13   -7    0    3    1    0.000000    0.000000
   13   -7    0    4    1   -0.000000    0.000000
   13   -7    0    5    1    0.000002    0.000000
   13   -7    0    6    1    0.000003    0.000000
   13   -7    0    7    1    0.000000   -0.000000
   13   -7    0    8    1    0.000001    0.000000
   13   -7    0    9    1    0.000000    0.000000
   13   -7    0   10    1    0.000003   -0.000000
   13   -7    0   11    1    0.000000    0.000000
   13   -7    0    1    2   -0.000000   -0.000000
   13   -7    0    2    2    0.000000   -0.000000
   13   -7    0    3    2   -0.000000    0.000000
   13   -7    0    4    2    0.000000   -0.000000
   13   -7    0    5    2   -0.000003    0.000000
   13   -7    0    6    2   -0.000002    0.000000
   13   -7    0    7    2    0.000000    0.000000
   13   -7    0    8    2   -0.000001   -0.000000
   13   -7    0    9    2    0.000000    0.000000
   13   -7    0   10    2    0.000003   -0.000000
   13   -7    0   11    2    0.000000    0.000000
   13   -7    0    1    3    0.000000    0.000000
   13   -7    0    2    3    0.000000   -0.000000
   13   -7    0    3    3    0.000000   -0.000000
   13   -7    0    4    3    0.000000    0.000000
   13   -7    0    5    3    0.000000   -0.000000
   13   -7    0    6    3   -0.000000    0.000000
   13   -7    0    7    3   -0.000002    0.000000
   13   -7    0    8    3    0.000000   -0.000000
   13   -7    0    9    3    0.000002    0.000000
   13   -7    0   10    3   -0.000000    0.000000
   13   -7    0   11    3   -0.000000    0.000000
   13   -7    0    1    4    0.000000   -0.000000
   13   -7    0    2    4    0.000000    0.000000
   13   -7    0    3    4    0.000000    0.000000
   13   -7    0    4    4    0.000000   -0.000000
   13   -7    0    5    4   -0.000000   -0.000000
   13   -7    0    6    4    0.000000    0.000000
   13   -7    0    7    4   -0.000002    0.000000
   13   -7    0    8    4   -0.000000    0.000000
   13   -7    0    9    4   -0.000002   -0.000000
   13   -7    0   10    4   -0.000000   -0.000000
   13   -7    0   11    4    0.000000    0.000000
   13   -7    0    1    5    0.000001   -0.000000
   13   -7    0    2    5   -0.000002   -0.000000
   13   -7    0    3    5    0.000000    0.000000
   13   -7    0    4    5    0.000000    0.000000
   13   -7    0    5    5   -0.000000    0.000000
   13   -7    0    6    5    0.000000    0.000000
   13   -7    0    7    5   -0.000000   -0.000000
   13   -7    0    8    5   -0.000000   -0.000000
   13   -7    0    9    5   -0.000000    0.000000
   13   -7    0   10    5   -0.000000   -0.000000
   13   -7    0   11    5    0.000005   -0.000000
   13   -7    0    1    6    0.000002    0.000000
   13   -7    0    2    6   -0.000001   -0.000000
   13   -7    0    3    6   -0.000000   -0.000000
   13   -7    0    4    6   -0.000000   -0.000000
   13   -7    0    5    6    0.000000   -0.000000
   13   -7    0    6    6   -0.000000   -0.000000
   13   -7    0    7    6    0.000000    0.000000
   13   -7    0    8    6   -0.000000   -0.000000
   13   -7    0    9    6    0.000000    0.000000
   13   -7    0   10    6    0.000000   -0.000000
   13   -7    0   11    6   -0.000005   -0.000000
   13   -7    0    1    7    0.000000   -0.000000
   13   -7    0    2    7    0.000000   -0.000000
   13   -7    0    3    7    0.000001   -0.000000
   13   -7    0    4    7    0.000001   -0.000000
   13   -7    0    5    7    0.000000    0.000000
   13   -7    0    6    7    0.000000   -0.000000
   13   -7    0    7    7    0.000000    0.000000
   13   -7    0    8    7   -0.000000   -0.000000
   13   -7    0    9    7   -0.000000    0.000000
   13   -7    0   10    7    0.000000    0.000000
   13   -7    0   11    7    0.000000    0.000000
   13   -7    0    1    8    0.000002   -0.000000
   13   -7    0    2    8   -0.000002    0.000000
   13   -7    0    3    8    0.000000   -0.000000
   13   -7    0    4    8   -0.000000   -0.000000
   13   -7    0    5    8    0.000005    0.000000
   13   -7    0    6    8    0.000005   -0.000000
   13   -7    0    7    8    0.000000    0.000000
   13   -7    0    8    8   -0.000000   -0.000000
   13   -7    0    9    8   -0.000000    0.000000
   13   -7    0   10    8   -0.000000    0.000000
   13   -7    0   11    8    0.000000    0.000000
   13   -7    0    1    9   -0.000000   -0.000000
   13   -7    0    2    9    0.000000    0.000000
   13   -7    0    3    9    0.000000   -0.000000
   13   -7    0    4    9   -0.000000    0.000000
   13   -7    0    5    9    0.000000    0.000000
   13   -7    0    6    9   -0.000000    0.000000
   13   -7    0    7    9    0.000000    0.000000
   13   -7    0    8    9    0.000000   -0.000000
   13   -7    0    9    9    0.000001    0.000000
   13   -7    0   10    9    0.000000   -0.000000
   13   -7    0   11    9   -0.000000   -0.000000
   13   -7    0    1   10    0.000001   -0.000000
   13   -7    0    2   10    0.000001   -0.000000
   13   -7    0    3   10    0.000000    0.000000
   13   -7    0    4   10    0.000000    0.000000
   13   -7    0    5   10    0.000003    0.000000
   13   -7    0    6   10   -0.000003    0.000000
   13   -7    0    7   10   -0.000000    0.000000
   13   -7    0    8   10   -0.000000    0.000000
   13   -7    0    9   10    0.000000    0.000000
   13   -7    0   10   10   -0.000001   -0.000000
   13   -7    0   11   10   -0.000000    0.000000
   13   -7    0    1   11   -0.000001   -0.000000
   13   -7    0    2   11   -0.000001   -0.000000
   13   -7    0    3   11   -0.000000   -0.000000
   13   -7    0    4   11   -0.000000   -0.000000
   13   -7    0    5   11    0.000001   -0.000000
   13   -7    0    6   11   -0.000001   -0.000000
   13   -7    0    7   11   -0.000000   -0.000000
   13   -7    0    8   11   -0.000000   -0.000000
   13   -7    0    9   11   -0.000000    0.000000
   13   -7    0   10   11   -0.000000    0.000000
   13   -7    0   11   11   -0.000000    0.000000
